 Entering Link 1 = C:\G09W\l1.exe PID=     14448.
  
 Copyright (c) 1988,1990,1992,1993,1995,1998,2003,2009, Gaussian, Inc.
                  All Rights Reserved.
  
 This is part of the Gaussian(R) 09 program.  It is based on
 the Gaussian(R) 03 system (copyright 2003, Gaussian, Inc.),
 the Gaussian(R) 98 system (copyright 1998, Gaussian, Inc.),
 the Gaussian(R) 94 system (copyright 1995, Gaussian, Inc.),
 the Gaussian 92(TM) system (copyright 1992, Gaussian, Inc.),
 the Gaussian 90(TM) system (copyright 1990, Gaussian, Inc.),
 the Gaussian 88(TM) system (copyright 1988, Gaussian, Inc.),
 the Gaussian 86(TM) system (copyright 1986, Carnegie Mellon
 University), and the Gaussian 82(TM) system (copyright 1983,
 Carnegie Mellon University). Gaussian is a federally registered
 trademark of Gaussian, Inc.
  
 This software contains proprietary and confidential information,
 including trade secrets, belonging to Gaussian, Inc.
  
 This software is provided under written license and may be
 used, copied, transmitted, or stored only in accord with that
 written license.
  
 The following legend is applicable only to US Government
 contracts under FAR:
  
                    RESTRICTED RIGHTS LEGEND
  
 Use, reproduction and disclosure by the US Government is
 subject to restrictions as set forth in subparagraphs (a)
 and (c) of the Commercial Computer Software - Restricted
 Rights clause in FAR 52.227-19.
  
 Gaussian, Inc.
 340 Quinnipiac St., Bldg. 40, Wallingford CT 06492
  
  
 ---------------------------------------------------------------
 Warning -- This program may not be used in any manner that
 competes with the business of Gaussian, Inc. or will provide
 assistance to any competitor of Gaussian, Inc.  The licensee
 of this program is prohibited from giving any competitor of
 Gaussian, Inc. access to this program.  By using this program,
 the user acknowledges that Gaussian, Inc. is engaged in the
 business of creating and licensing software in the field of
 computational chemistry and represents and warrants to the
 licensee that it is not a competitor of Gaussian, Inc. and that
 it will not use this program in any manner prohibited above.
 ---------------------------------------------------------------
  

 Cite this work as:
 Gaussian 09, Revision A.02,
 M. J. Frisch, G. W. Trucks, H. B. Schlegel, G. E. Scuseria, 
 M. A. Robb, J. R. Cheeseman, G. Scalmani, V. Barone, B. Mennucci, 
 G. A. Petersson, H. Nakatsuji, M. Caricato, X. Li, H. P. Hratchian, 
 A. F. Izmaylov, J. Bloino, G. Zheng, J. L. Sonnenberg, M. Hada, 
 M. Ehara, K. Toyota, R. Fukuda, J. Hasegawa, M. Ishida, T. Nakajima, 
 Y. Honda, O. Kitao, H. Nakai, T. Vreven, J. A. Montgomery, Jr., 
 J. E. Peralta, F. Ogliaro, M. Bearpark, J. J. Heyd, E. Brothers, 
 K. N. Kudin, V. N. Staroverov, R. Kobayashi, J. Normand, 
 K. Raghavachari, A. Rendell, J. C. Burant, S. S. Iyengar, J. Tomasi, 
 M. Cossi, N. Rega, J. M. Millam, M. Klene, J. E. Knox, J. B. Cross, 
 V. Bakken, C. Adamo, J. Jaramillo, R. Gomperts, R. E. Stratmann, 
 O. Yazyev, A. J. Austin, R. Cammi, C. Pomelli, J. W. Ochterski, 
 R. L. Martin, K. Morokuma, V. G. Zakrzewski, G. A. Voth, 
 P. Salvador, J. J. Dannenberg, S. Dapprich, A. D. Daniels, 
 O. Farkas, J. B. Foresman, J. V. Ortiz, J. Cioslowski, 
 and D. J. Fox, Gaussian, Inc., Wallingford CT, 2009.
 
 ******************************************
 Gaussian 09:  IA32W-G09RevA.02 11-Jun-2009
                03-Dec-2024 
 ******************************************
 %chk=C:\G09W\ethoxide\1optfreq.chk
 -------------------------------------
 # opt freq hf/3-21g geom=connectivity
 -------------------------------------
 1/18=20,19=15,38=1,57=2/1,3;
 2/9=110,12=2,17=6,18=5,40=1/2;
 3/5=5,11=9,16=1,25=1,30=1,71=1/1,2,3;
 4//1;
 5/5=2,38=5/2;
 6/7=2,8=2,9=2,10=2,28=1/1;
 7//1,2,3,16;
 1/18=20,19=15/3(2);
 2/9=110/2;
 99//99;
 2/9=110/2;
 3/5=5,11=9,16=1,25=1,30=1,71=1/1,2,3;
 4/5=5,16=3/1;
 5/5=2,38=5/2;
 7//1,2,3,16;
 1/18=20,19=15/3(-5);
 2/9=110/2;
 6/7=2,8=2,9=2,10=2,19=2,28=1/1;
 99/9=1/99;
 -------------------
 Title Card Required
 -------------------
 Symbolic Z-matrix:
 Charge =  0 Multiplicity = 1
 C                    -3.20536   0.35714   0. 
 H                    -2.8487   -0.65167   0. 
 H                    -2.84868   0.86154   0.87365 
 H                    -4.27536   0.35716   0. 
 C                    -2.69201   1.0831   -1.2574 
 H                    -3.04867   2.09191  -1.25741 
 C                    -3.20536   0.35714  -2.51481 
 H                    -4.27536   0.35715  -2.51481 
 H                    -2.8487   -0.65167  -2.51481 
 C                    -2.69201   1.0831   -3.77221 
 H                    -1.62201   1.08478  -3.77124 
 H                    -3.04709   0.57757  -4.64586 
 H                    -3.05026   2.09134  -3.77319 
 Br                   -0.78201   1.08308  -1.2574 
 

 GradGradGradGradGradGradGradGradGradGradGradGradGradGradGradGradGradGrad
 Berny optimization.
 Initialization pass.
                           ----------------------------
                           !    Initial Parameters    !
                           ! (Angstroms and Degrees)  !
 --------------------------                            --------------------------
 ! Name  Definition              Value          Derivative Info.                !
 --------------------------------------------------------------------------------
 ! R1    R(1,2)                  1.07           estimate D2E/DX2                !
 ! R2    R(1,3)                  1.07           estimate D2E/DX2                !
 ! R3    R(1,4)                  1.07           estimate D2E/DX2                !
 ! R4    R(1,5)                  1.54           estimate D2E/DX2                !
 ! R5    R(5,6)                  1.07           estimate D2E/DX2                !
 ! R6    R(5,7)                  1.54           estimate D2E/DX2                !
 ! R7    R(5,14)                 1.91           estimate D2E/DX2                !
 ! R8    R(7,8)                  1.07           estimate D2E/DX2                !
 ! R9    R(7,9)                  1.07           estimate D2E/DX2                !
 ! R10   R(7,10)                 1.54           estimate D2E/DX2                !
 ! R11   R(10,11)                1.07           estimate D2E/DX2                !
 ! R12   R(10,12)                1.07           estimate D2E/DX2                !
 ! R13   R(10,13)                1.07           estimate D2E/DX2                !
 ! A1    A(2,1,3)              109.4712         estimate D2E/DX2                !
 ! A2    A(2,1,4)              109.4712         estimate D2E/DX2                !
 ! A3    A(2,1,5)              109.4712         estimate D2E/DX2                !
 ! A4    A(3,1,4)              109.4712         estimate D2E/DX2                !
 ! A5    A(3,1,5)              109.4713         estimate D2E/DX2                !
 ! A6    A(4,1,5)              109.4712         estimate D2E/DX2                !
 ! A7    A(1,5,6)              109.4712         estimate D2E/DX2                !
 ! A8    A(1,5,7)              109.4712         estimate D2E/DX2                !
 ! A9    A(1,5,14)             109.4712         estimate D2E/DX2                !
 ! A10   A(6,5,7)              109.4713         estimate D2E/DX2                !
 ! A11   A(6,5,14)             109.4712         estimate D2E/DX2                !
 ! A12   A(7,5,14)             109.4712         estimate D2E/DX2                !
 ! A13   A(5,7,8)              109.4712         estimate D2E/DX2                !
 ! A14   A(5,7,9)              109.4712         estimate D2E/DX2                !
 ! A15   A(5,7,10)             109.4712         estimate D2E/DX2                !
 ! A16   A(8,7,9)              109.4712         estimate D2E/DX2                !
 ! A17   A(8,7,10)             109.4713         estimate D2E/DX2                !
 ! A18   A(9,7,10)             109.4712         estimate D2E/DX2                !
 ! A19   A(7,10,11)            109.4712         estimate D2E/DX2                !
 ! A20   A(7,10,12)            109.4712         estimate D2E/DX2                !
 ! A21   A(7,10,13)            109.4712         estimate D2E/DX2                !
 ! A22   A(11,10,12)           109.4713         estimate D2E/DX2                !
 ! A23   A(11,10,13)           109.4712         estimate D2E/DX2                !
 ! A24   A(12,10,13)           109.4712         estimate D2E/DX2                !
 ! D1    D(2,1,5,6)            179.9999         estimate D2E/DX2                !
 ! D2    D(2,1,5,7)             59.9999         estimate D2E/DX2                !
 ! D3    D(2,1,5,14)           -60.0001         estimate D2E/DX2                !
 ! D4    D(3,1,5,6)            -60.0001         estimate D2E/DX2                !
 ! D5    D(3,1,5,7)            179.9999         estimate D2E/DX2                !
 ! D6    D(3,1,5,14)            59.9999         estimate D2E/DX2                !
 ! D7    D(4,1,5,6)             59.9999         estimate D2E/DX2                !
 ! D8    D(4,1,5,7)            -60.0001         estimate D2E/DX2                !
 ! D9    D(4,1,5,14)           179.9999         estimate D2E/DX2                !
 ! D10   D(1,5,7,8)             60.0001         estimate D2E/DX2                !
 ! D11   D(1,5,7,9)            -59.9999         estimate D2E/DX2                !
 ! D12   D(1,5,7,10)          -179.9999         estimate D2E/DX2                !
 ! D13   D(6,5,7,8)            -59.9999         estimate D2E/DX2                !
 ! D14   D(6,5,7,9)           -179.9999         estimate D2E/DX2                !
 ! D15   D(6,5,7,10)            60.0001         estimate D2E/DX2                !
 ! D16   D(14,5,7,8)          -179.9999         estimate D2E/DX2                !
 ! D17   D(14,5,7,9)            60.0001         estimate D2E/DX2                !
 ! D18   D(14,5,7,10)          -59.9999         estimate D2E/DX2                !
 ! D19   D(5,7,10,11)           59.889          estimate D2E/DX2                !
 ! D20   D(5,7,10,12)          179.889          estimate D2E/DX2                !
 ! D21   D(5,7,10,13)          -60.111          estimate D2E/DX2                !
 ! D22   D(8,7,10,11)          179.889          estimate D2E/DX2                !
 ! D23   D(8,7,10,12)          -60.111          estimate D2E/DX2                !
 ! D24   D(8,7,10,13)           59.889          estimate D2E/DX2                !
 ! D25   D(9,7,10,11)          -60.111          estimate D2E/DX2                !
 ! D26   D(9,7,10,12)           59.889          estimate D2E/DX2                !
 ! D27   D(9,7,10,13)          179.889          estimate D2E/DX2                !
 --------------------------------------------------------------------------------
 Trust Radius=3.00D-01 FncErr=1.00D-07 GrdErr=1.00D-07
 Number of steps in this run=  74 maximum allowed number of steps= 100.
 GradGradGradGradGradGradGradGradGradGradGradGradGradGradGradGradGradGrad

                          Input orientation:                          
 ---------------------------------------------------------------------
 Center     Atomic      Atomic             Coordinates (Angstroms)
 Number     Number       Type             X           Y           Z
 ---------------------------------------------------------------------
      1          6           0       -3.205357    0.357143    0.000000
      2          1           0       -2.848703   -0.651667    0.000000
      3          1           0       -2.848684    0.861541    0.873652
      4          1           0       -4.275357    0.357156    0.000000
      5          6           0       -2.692015    1.083099   -1.257405
      6          1           0       -3.048671    2.091909   -1.257406
      7          6           0       -3.205355    0.357140   -2.514809
      8          1           0       -4.275355    0.357153   -2.514810
      9          1           0       -2.848700   -0.651670   -2.514807
     10          6           0       -2.692011    1.083095   -3.772214
     11          1           0       -1.622013    1.084776   -3.771236
     12          1           0       -3.047086    0.577568   -4.645864
     13          1           0       -3.050261    2.091340   -3.773194
     14         35           0       -0.782015    1.083079   -1.257404
 ---------------------------------------------------------------------
                    Distance matrix (angstroms):
                    1          2          3          4          5
     1  C    0.000000
     2  H    1.070000   0.000000
     3  H    1.070000   1.747302   0.000000
     4  H    1.070000   1.747303   1.747303   0.000000
     5  C    1.540000   2.148263   2.148263   2.148263   0.000000
     6  H    2.148263   3.024610   2.468847   2.468845   1.070000
     7  C    2.514809   2.732976   3.444314   2.732978   1.540000
     8  H    2.732977   3.062242   3.710993   2.514810   2.148263
     9  H    2.732977   2.514807   3.710992   3.062244   2.148263
    10  C    3.875581   4.154943   4.653783   4.154945   2.514809
    11  H    4.154353   4.329228   4.809317   4.668178   2.732078
    12  H    4.653782   4.809826   5.530376   4.810539   3.444313
    13  H    4.155537   4.669229   4.811051   4.329578   2.733877
    14  Br   2.825002   2.976845   2.976844   3.783050   1.910000
                    6          7          8          9         10
     6  H    0.000000
     7  C    2.148263   0.000000
     8  H    2.468846   1.070000   0.000000
     9  H    3.024611   1.070000   1.747303   0.000000
    10  C    2.732978   1.540000   2.148263   2.148263   0.000000
    11  H    3.060884   2.148263   3.024610   2.469537   1.070000
    12  H    3.711452   2.148263   2.469538   2.468154   1.070000
    13  H    2.515789   2.148263   2.468155   3.024610   1.070000
    14  Br   2.481021   2.825001   3.783050   2.976845   3.157904
                   11         12         13         14
    11  H    0.000000
    12  H    1.747303   0.000000
    13  H    1.747303   1.747303   0.000000
    14  Br   2.650462   4.107037   3.534223   0.000000
 Stoichiometry    C4H9Br
 Framework group  C1[X(C4H9Br)]
 Deg. of freedom    36
 Full point group                 C1      NOp   1
 Largest Abelian subgroup         C1      NOp   1
 Largest concise Abelian subgroup C1      NOp   1
                         Standard orientation:                         
 ---------------------------------------------------------------------
 Center     Atomic      Atomic             Coordinates (Angstroms)
 Number     Number       Type             X           Y           Z
 ---------------------------------------------------------------------
      1          6           0        0.136006    2.139208   -0.031901
      2          1           0       -0.030198    2.165303   -1.088592
      3          1           0       -0.738170    2.490399    0.475427
      4          1           0        0.967268    2.766452    0.214001
      5          6           0        0.436979    0.693435    0.404855
      6          1           0        0.603185    0.667340    1.461545
      7          6           0        1.695136    0.187982   -0.325321
      8          1           0        2.526399    0.815226   -0.079420
      9          1           0        1.528931    0.214078   -1.382012
     10          6           0        1.996108   -1.257792    0.111433
     11          1           0        1.164055   -1.884670   -0.132718
     12          1           0        2.869166   -1.609655   -0.397353
     13          1           0        2.164221   -1.283580    1.167829
     14         35           0       -1.046864   -0.426226   -0.034089
 ---------------------------------------------------------------------
 Rotational constants (GHZ):      3.8523210      2.4660137      1.6046134
 Standard basis: 3-21G (6D, 7F)
 There are    77 symmetry adapted basis functions of A   symmetry.
 Integral buffers will be    262144 words long.
 Raffenetti 1 integral format.
 Two-electron integral symmetry is turned on.
    77 basis functions,   144 primitive gaussians,    77 cartesian basis functions
    34 alpha electrons       34 beta electrons
       nuclear repulsion energy       347.6268427626 Hartrees.
 NAtoms=   14 NActive=   14 NUniq=   14 SFac= 7.50D-01 NAtFMM=   80 NAOKFM=F Big=F
 One-electron integrals computed using PRISM.
 NBasis=    77 RedAO= T  NBF=    77
 NBsUse=    77 1.00D-06 NBFU=    77
 Harris functional with IExCor=  205 diagonalized for initial guess.
 ExpMin= 1.65D-01 ExpMax= 6.10D+03 ExpMxC= 6.10D+03 IAcc=1 IRadAn=         1 AccDes= 0.00D+00
 HarFok:  IExCor=  205 AccDes= 0.00D+00 IRadAn=         1 IDoV= 1
 ScaDFX=  1.000000  1.000000  1.000000  1.000000
 FoFCou: FMM=F IPFlag=           0 FMFlag=      100000 FMFlg1=           0
         NFxFlg=           0 DoJE=T BraDBF=F KetDBF=T FulRan=T
         Omega=  0.000000  0.000000  1.000000  0.000000  0.000000 ICntrl=     500 IOpCl=  0
         NMat0=    1 NMatS0=    1 NMatT0=    0 NMatD0=    1 NMtDS0=    0 NMtDT0=    0
         I1Cent=           4 NGrid=           0.
 Petite list used in FoFCou.
 Initial guess orbital symmetries:
       Occupied  (A) (A) (A) (A) (A) (A) (A) (A) (A) (A) (A) (A)
                 (A) (A) (A) (A) (A) (A) (A) (A) (A) (A) (A) (A)
                 (A) (A) (A) (A) (A) (A) (A) (A) (A) (A)
       Virtual   (A) (A) (A) (A) (A) (A) (A) (A) (A) (A) (A) (A)
                 (A) (A) (A) (A) (A) (A) (A) (A) (A) (A) (A) (A)
                 (A) (A) (A) (A) (A) (A) (A) (A) (A) (A) (A) (A)
                 (A) (A) (A) (A) (A) (A) (A)
 The electronic state of the initial guess is 1-A.
 Requested convergence on RMS density matrix=1.00D-08 within 128 cycles.
 Requested convergence on MAX density matrix=1.00D-06.
 Requested convergence on             energy=1.00D-06.
 No special actions if energy rises.
 Keep R1 ints in memory in canonical form, NReq=5367399.
 SCF Done:  E(RHF) =  -2715.90693976     A.U. after   12 cycles
             Convg  =    0.3074D-08             -V/T =  1.9968

 **********************************************************************

            Population analysis using the SCF density.

 **********************************************************************

 Orbital symmetries:
       Occupied  (A) (A) (A) (A) (A) (A) (A) (A) (A) (A) (A) (A)
                 (A) (A) (A) (A) (A) (A) (A) (A) (A) (A) (A) (A)
                 (A) (A) (A) (A) (A) (A) (A) (A) (A) (A)
       Virtual   (A) (A) (A) (A) (A) (A) (A) (A) (A) (A) (A) (A)
                 (A) (A) (A) (A) (A) (A) (A) (A) (A) (A) (A) (A)
                 (A) (A) (A) (A) (A) (A) (A) (A) (A) (A) (A) (A)
                 (A) (A) (A) (A) (A) (A) (A)
 The electronic state is 1-A.
 Alpha  occ. eigenvalues -- -486.75084 -64.76510 -57.95175 -57.94995 -57.94985
 Alpha  occ. eigenvalues --  -11.22792 -11.17240 -11.16417 -11.14799  -9.75706
 Alpha  occ. eigenvalues --   -7.33787  -7.32786  -7.32770  -3.06750  -3.06309
 Alpha  occ. eigenvalues --   -3.06299  -3.05171  -3.05170  -1.12598  -1.01364
 Alpha  occ. eigenvalues --   -0.96759  -0.87478  -0.79153  -0.65559  -0.61365
 Alpha  occ. eigenvalues --   -0.60072  -0.58621  -0.53607  -0.51369  -0.49562
 Alpha  occ. eigenvalues --   -0.47112  -0.45653  -0.38379  -0.37981
 Alpha virt. eigenvalues --    0.19135   0.26524   0.29973   0.30443   0.33984
 Alpha virt. eigenvalues --    0.34214   0.35925   0.36251   0.37109   0.38386
 Alpha virt. eigenvalues --    0.41441   0.42428   0.43603   0.80861   0.83820
 Alpha virt. eigenvalues --    0.85373   0.86722   0.89805   0.91579   0.97895
 Alpha virt. eigenvalues --    1.00055   1.02617   1.04352   1.07161   1.10908
 Alpha virt. eigenvalues --    1.11344   1.19247   1.26031   1.34485   1.36648
 Alpha virt. eigenvalues --    1.37405   1.38853   1.39710   1.41005   1.42045
 Alpha virt. eigenvalues --    1.46306   1.48134   1.57623   1.88550   2.18521
 Alpha virt. eigenvalues --    2.29329   2.52758  24.57372
          Condensed to atoms (all electrons):
              1          2          3          4          5          6
     1  C    5.411511   0.378321   0.381999   0.370064   0.202998  -0.040276
     2  H    0.378321   0.489448  -0.023263  -0.023319  -0.049232   0.003032
     3  H    0.381999  -0.023263   0.484983  -0.022856  -0.046838  -0.001865
     4  H    0.370064  -0.023319  -0.022856   0.503344  -0.043425  -0.000634
     5  C    0.202998  -0.049232  -0.046838  -0.043425   5.919220   0.374701
     6  H   -0.040276   0.003032  -0.001865  -0.000634   0.374701   0.464063
     7  C   -0.080327  -0.001929   0.004003  -0.000439   0.185345  -0.043526
     8  H   -0.000900   0.000126  -0.000037   0.001565  -0.042702  -0.000496
     9  H   -0.001256   0.002531  -0.000047   0.000136  -0.049245   0.003132
    10  C    0.004183  -0.000059  -0.000082  -0.000052  -0.092724  -0.001302
    11  H    0.000044   0.000005   0.000001  -0.000005  -0.004312   0.000219
    12  H   -0.000063   0.000000   0.000001  -0.000002   0.004188  -0.000053
    13  H   -0.000040   0.000001   0.000000   0.000002  -0.001781   0.002669
    14  Br  -0.077953   0.002352   0.001387   0.003453   0.202446  -0.035954
              7          8          9         10         11         12
     1  C   -0.080327  -0.000900  -0.001256   0.004183   0.000044  -0.000063
     2  H   -0.001929   0.000126   0.002531  -0.000059   0.000005   0.000000
     3  H    0.004003  -0.000037  -0.000047  -0.000082   0.000001   0.000001
     4  H   -0.000439   0.001565   0.000136  -0.000052  -0.000005  -0.000002
     5  C    0.185345  -0.042702  -0.049245  -0.092724  -0.004312   0.004188
     6  H   -0.043526  -0.000496   0.003132  -0.001302   0.000219  -0.000053
     7  C    5.530630   0.382265   0.384470   0.252790  -0.043873  -0.042851
     8  H    0.382265   0.496740  -0.022015  -0.040995   0.002886  -0.001395
     9  H    0.384470  -0.022015   0.493317  -0.041552  -0.001490  -0.001803
    10  C    0.252790  -0.040995  -0.041552   5.395817   0.376721   0.381883
    11  H   -0.043873   0.002886  -0.001490   0.376721   0.477154  -0.022924
    12  H   -0.042851  -0.001395  -0.001803   0.381883  -0.022924   0.502229
    13  H   -0.049472  -0.001566   0.003236   0.378654  -0.025104  -0.024729
    14  Br  -0.079780   0.003190   0.002912  -0.014892   0.008659   0.000252
             13         14
     1  C   -0.000040  -0.077953
     2  H    0.000001   0.002352
     3  H    0.000000   0.001387
     4  H    0.000002   0.003453
     5  C   -0.001781   0.202446
     6  H    0.002669  -0.035954
     7  C   -0.049472  -0.079780
     8  H   -0.001566   0.003190
     9  H    0.003236   0.002912
    10  C    0.378654  -0.014892
    11  H   -0.025104   0.008659
    12  H   -0.024729   0.000252
    13  H    0.517369   0.000515
    14  Br   0.000515  34.902372
 Mulliken atomic charges:
              1
     1  C   -0.548304
     2  H    0.221985
     3  H    0.222614
     4  H    0.212167
     5  C   -0.558638
     6  H    0.276289
     7  C   -0.397307
     8  H    0.223334
     9  H    0.227675
    10  C   -0.598389
    11  H    0.232019
    12  H    0.205267
    13  H    0.200247
    14  Br   0.081040
 Sum of Mulliken atomic charges =   0.00000
 Mulliken charges with hydrogens summed into heavy atoms:
              1
     1  C    0.108463
     5  C   -0.282349
     7  C    0.053702
    10  C    0.039143
    14  Br   0.081040
 Sum of Mulliken charges with hydrogens summed into heavy atoms =   0.00000
 Electronic spatial extent (au):  <R**2>=            773.8489
 Charge=              0.0000 electrons
 Dipole moment (field-independent basis, Debye):
    X=              1.6498    Y=              1.1908    Z=              0.2996  Tot=              2.0566
 Quadrupole moment (field-independent basis, Debye-Ang):
   XX=            -46.0439   YY=            -45.1501   ZZ=            -45.3036
   XY=              0.4737   XZ=              0.2556   YZ=              0.6458
 Traceless Quadrupole moment (field-independent basis, Debye-Ang):
   XX=             -0.5447   YY=              0.3492   ZZ=              0.1956
   XY=              0.4737   XZ=              0.2556   YZ=              0.6458
 Octapole moment (field-independent basis, Debye-Ang**2):
  XXX=            -32.6786  YYY=            -11.8285  ZZZ=             -0.3788  XYY=            -12.1131
  XXY=             -4.6200  XXZ=             -1.1935  XZZ=            -10.1352  YZZ=             -3.6639
  YYZ=             -0.5623  XYZ=              0.0255
 Hexadecapole moment (field-independent basis, Debye-Ang**3):
 XXXX=           -492.2301 YYYY=           -401.1257 ZZZZ=            -81.6638 XXXY=             20.6930
 XXXZ=              0.5533 YYYX=             19.5159 YYYZ=              3.5573 ZZZX=              2.6253
 ZZZY=             -0.4545 XXYY=           -145.7963 XXZZ=            -97.7504 YYZZ=            -81.3415
 XXYZ=              4.4614 YYXZ=              0.4671 ZZXY=              4.0579
 N-N= 3.476268427626D+02 E-N=-7.196555007548D+03  KE= 2.724674945972D+03
 Calling FoFJK, ICntrl=      2127 FMM=F ISym2X=0 I1Cent= 0 IOpClX= 0 NMat=1 NMatS=1 NMatT=0.
 ***** Axes restored to original set *****
 -------------------------------------------------------------------
 Center     Atomic                   Forces (Hartrees/Bohr)
 Number     Number              X              Y              Z
 -------------------------------------------------------------------
      1        6           0.009813918    0.011043614   -0.008952181
      2        1           0.002468018   -0.008685714    0.001772281
      3        1           0.001320617    0.001603792    0.010099596
      4        1          -0.010687534    0.000127750    0.000431227
      5        6          -0.043592709   -0.023944205    0.002855439
      6        1           0.003548944    0.007644756   -0.000801975
      7        6           0.017341034    0.019830112   -0.004280545
      8        1          -0.010619927   -0.000472597    0.003018750
      9        1           0.001612940   -0.009560705    0.001922834
     10        6          -0.007778709   -0.011055430    0.004605325
     11        1           0.005861026    0.001048524   -0.004366895
     12        1          -0.002321169   -0.002056836   -0.010777532
     13        1          -0.002575896    0.010375133   -0.002803811
     14       35           0.035609448    0.004101804    0.007277486
 -------------------------------------------------------------------
 Cartesian Forces:  Max     0.043592709 RMS     0.011885969

 GradGradGradGradGradGradGradGradGradGradGradGradGradGradGradGradGradGrad
 Berny optimization.
 Internal  Forces:  Max     0.035609409 RMS     0.007591155
 Search for a local minimum.
 Step number   1 out of a maximum of   74
 All quantities printed in internal units (Hartrees-Bohrs-Radians)
 Mixed Optimization -- RFO/linear search
 Second derivative matrix not updated -- first step.
     Eigenvalues ---    0.00237   0.00237   0.00237   0.03840   0.04556
     Eigenvalues ---    0.04896   0.05255   0.05720   0.05720   0.05720
     Eigenvalues ---    0.05720   0.07655   0.08673   0.11701   0.16000
     Eigenvalues ---    0.16000   0.16000   0.16000   0.16000   0.16000
     Eigenvalues ---    0.16074   0.17771   0.21948   0.23246   0.28519
     Eigenvalues ---    0.28519   0.28519   0.37230   0.37230   0.37230
     Eigenvalues ---    0.37230   0.37230   0.37230   0.37230   0.37230
     Eigenvalues ---    0.372301000.000001000.000001000.000001000.00000
     Eigenvalues --- 1000.000001000.000001000.000001000.000001000.00000
     Eigenvalues --- 1000.000001000.000001000.000001000.000001000.00000
     Eigenvalues --- 1000.000001000.000001000.000001000.000001000.00000
     Eigenvalues --- 1000.000001000.000001000.000001000.000001000.00000
     Eigenvalues --- 1000.000001000.000001000.000001000.00000
 RFO step:  Lambda=-1.85683771D-02 EMin= 2.36824061D-03
 Linear search not attempted -- first point.
 Maximum step size (   0.300) exceeded in Quadratic search.
    -- Step size scaled by   0.766
 Iteration  1 RMS(Cart)=  0.08316446 RMS(Int)=  0.00240750
 Iteration  2 RMS(Cart)=  0.00334149 RMS(Int)=  0.00054772
 Iteration  3 RMS(Cart)=  0.00000721 RMS(Int)=  0.00054770
 Iteration  4 RMS(Cart)=  0.00000000 RMS(Int)=  0.00054770
 Variable       Old X    -DE/DX   Delta X   Delta X   Delta X     New X
                                 (Linear)    (Quad)   (Total)
    R1        2.02201   0.00901   0.00000   0.01765   0.01765   2.03966
    R2        2.02201   0.00944   0.00000   0.01850   0.01850   2.04050
    R3        2.02201   0.01069   0.00000   0.02093   0.02093   2.04294
    R4        2.91018  -0.00016   0.00000  -0.00041  -0.00041   2.90977
    R5        2.02201   0.00602   0.00000   0.01180   0.01180   2.03381
    R6        2.91018   0.00603   0.00000   0.01519   0.01519   2.92537
    R7        3.60938   0.03561   0.00000   0.13890   0.13890   3.74828
    R8        2.02201   0.01062   0.00000   0.02080   0.02080   2.04281
    R9        2.02201   0.00955   0.00000   0.01871   0.01871   2.04072
   R10        2.91018   0.00783   0.00000   0.01973   0.01973   2.92991
   R11        2.02201   0.00586   0.00000   0.01148   0.01148   2.03348
   R12        2.02201   0.01054   0.00000   0.02065   0.02065   2.04266
   R13        2.02201   0.01064   0.00000   0.02084   0.02084   2.04285
    A1        1.91063  -0.00320   0.00000  -0.01166  -0.01182   1.89881
    A2        1.91063  -0.00084   0.00000  -0.00581  -0.00579   1.90484
    A3        1.91063   0.00166   0.00000   0.00704   0.00696   1.91759
    A4        1.91063  -0.00230   0.00000  -0.00970  -0.00969   1.90094
    A5        1.91063   0.00562   0.00000   0.02520   0.02513   1.93576
    A6        1.91063  -0.00094   0.00000  -0.00507  -0.00506   1.90558
    A7        1.91063   0.00065   0.00000  -0.00881  -0.00896   1.90168
    A8        1.91063   0.00178   0.00000   0.01674   0.01644   1.92708
    A9        1.91063  -0.00660   0.00000  -0.01904  -0.02021   1.89042
   A10        1.91063  -0.00239   0.00000  -0.00848  -0.00821   1.90242
   A11        1.91063  -0.00325   0.00000  -0.03572  -0.03601   1.87463
   A12        1.91063   0.00982   0.00000   0.05531   0.05540   1.96603
   A13        1.91063  -0.01003   0.00000  -0.04779  -0.04738   1.86325
   A14        1.91063  -0.00783   0.00000  -0.01354  -0.01621   1.89443
   A15        1.91063   0.02668   0.00000   0.09414   0.09363   2.00426
   A16        1.91063   0.00362   0.00000  -0.01519  -0.01605   1.89459
   A17        1.91063  -0.00791   0.00000  -0.02930  -0.02780   1.88283
   A18        1.91063  -0.00452   0.00000   0.01167   0.01047   1.92110
   A19        1.91063   0.00500   0.00000   0.02290   0.02271   1.93334
   A20        1.91063   0.00362   0.00000   0.01421   0.01410   1.92474
   A21        1.91063   0.00251   0.00000   0.01060   0.01048   1.92112
   A22        1.91063  -0.00424   0.00000  -0.01789  -0.01806   1.89257
   A23        1.91063  -0.00318   0.00000  -0.01099  -0.01118   1.89945
   A24        1.91063  -0.00370   0.00000  -0.01883  -0.01887   1.89177
    D1        3.14159   0.00167   0.00000   0.01398   0.01375  -3.12784
    D2        1.04720   0.00311   0.00000   0.01951   0.01933   1.06652
    D3       -1.04720  -0.00596   0.00000  -0.04682  -0.04654  -1.09374
    D4       -1.04720   0.00221   0.00000   0.01944   0.01930  -1.02790
    D5        3.14159   0.00365   0.00000   0.02497   0.02487  -3.11672
    D6        1.04720  -0.00542   0.00000  -0.04136  -0.04100   1.00620
    D7        1.04720   0.00226   0.00000   0.01989   0.01971   1.06690
    D8       -1.04720   0.00370   0.00000   0.02542   0.02528  -1.02192
    D9        3.14159  -0.00538   0.00000  -0.04091  -0.04059   3.10100
   D10        1.04720  -0.00333   0.00000  -0.07855  -0.07824   0.96895
   D11       -1.04720   0.00318   0.00000  -0.02239  -0.02304  -1.07024
   D12       -3.14159  -0.00283   0.00000  -0.08605  -0.08673   3.05486
   D13       -1.04720  -0.00375   0.00000  -0.07281  -0.07222  -1.11942
   D14       -3.14159   0.00276   0.00000  -0.01666  -0.01702   3.12458
   D15        1.04720  -0.00325   0.00000  -0.08031  -0.08071   0.96649
   D16       -3.14159  -0.00432   0.00000  -0.05775  -0.05671   3.08489
   D17        1.04720   0.00219   0.00000  -0.00159  -0.00150   1.04569
   D18       -1.04720  -0.00382   0.00000  -0.06524  -0.06519  -1.11239
   D19        1.04526   0.00212   0.00000   0.03616   0.03676   1.08202
   D20        3.13966   0.00220   0.00000   0.03698   0.03762  -3.10591
   D21       -1.04913   0.00142   0.00000   0.02911   0.02966  -1.01947
   D22        3.13966   0.00132   0.00000   0.01734   0.01735  -3.12618
   D23       -1.04913   0.00140   0.00000   0.01816   0.01821  -1.03092
   D24        1.04526   0.00062   0.00000   0.01029   0.01026   1.05552
   D25       -1.04913  -0.00186   0.00000  -0.01206  -0.01267  -1.06180
   D26        1.04526  -0.00178   0.00000  -0.01124  -0.01181   1.03345
   D27        3.13966  -0.00256   0.00000  -0.01911  -0.01976   3.11989
         Item               Value     Threshold  Converged?
 Maximum Force            0.035609     0.000450     NO 
 RMS     Force            0.007591     0.000300     NO 
 Maximum Displacement     0.344374     0.001800     NO 
 RMS     Displacement     0.084035     0.001200     NO 
 Predicted change in Energy=-9.611870D-03
 GradGradGradGradGradGradGradGradGradGradGradGradGradGradGradGradGradGrad

                          Input orientation:                          
 ---------------------------------------------------------------------
 Center     Atomic      Atomic             Coordinates (Angstroms)
 Number     Number       Type             X           Y           Z
 ---------------------------------------------------------------------
      1          6           0       -3.226065    0.353994    0.014221
      2          1           0       -2.888498   -0.670955    0.036660
      3          1           0       -2.907898    0.844982    0.921768
      4          1           0       -4.305979    0.370549   -0.033117
      5          6           0       -2.654349    1.066271   -1.225429
      6          1           0       -2.988323    2.089386   -1.225893
      7          6           0       -3.146279    0.374918   -2.520208
      8          1           0       -4.226375    0.364712   -2.477016
      9          1           0       -2.792768   -0.645481   -2.520265
     10          6           0       -2.729170    1.082605   -3.835146
     11          1           0       -1.657811    1.105024   -3.933221
     12          1           0       -3.139668    0.560614   -4.688034
     13          1           0       -3.101737    2.097361   -3.844648
     14         35           0       -0.676663    1.087680   -1.075169
 ---------------------------------------------------------------------
                    Distance matrix (angstroms):
                    1          2          3          4          5
     1  C    0.000000
     2  H    1.079341   0.000000
     3  H    1.079787   1.755522   0.000000
     4  H    1.081078   1.760355   1.758272   0.000000
     5  C    1.539782   2.160012   2.173409   2.152561   0.000000
     6  H    2.146157   3.037020   2.483436   2.472516   1.076245
     7  C    2.535771   2.774505   3.482095   2.744184   1.548037
     8  H    2.684585   3.030032   3.677061   2.445202   2.128362
     9  H    2.758680   2.558843   3.752642   3.083509   2.150781
    10  C    3.949101   4.253380   4.766197   4.177173   2.610840
    11  H    4.313440   4.519807   5.020086   4.771065   2.885608
    12  H    4.707585   4.889027   5.621784   4.802568   3.532826
    13  H    4.236231   4.772169   4.932012   4.354291   2.850195
    14  Br   2.867841   3.036639   3.004175   3.843447   1.983502
                    6          7          8          9         10
     6  H    0.000000
     7  C    2.153975   0.000000
     8  H    2.464262   1.081008   0.000000
     9  H    3.032020   1.079900   1.754307   0.000000
    10  C    2.808731   1.550439   2.145113   2.172381   0.000000
    11  H    3.173147   2.178348   3.044030   2.519691   1.076073
    12  H    3.787674   2.175774   2.471418   2.504841   1.080927
    13  H    2.621223   2.173232   2.477358   3.061476   1.081030
    14  Br   2.523867   2.948758   3.884368   3.093550   3.439518
                   11         12         13         14
    11  H    0.000000
    12  H    1.749865   0.000000
    13  H    1.754280   1.753377   0.000000
    14  Br   3.021823   4.404201   3.817126   0.000000
 Stoichiometry    C4H9Br
 Framework group  C1[X(C4H9Br)]
 Deg. of freedom    36
 Full point group                 C1      NOp   1
 Largest Abelian subgroup         C1      NOp   1
 Largest concise Abelian subgroup C1      NOp   1
                         Standard orientation:                         
 ---------------------------------------------------------------------
 Center     Atomic      Atomic             Coordinates (Angstroms)
 Number     Number       Type             X           Y           Z
 ---------------------------------------------------------------------
      1          6           0        0.140214    2.135939   -0.025686
      2          1           0       -0.027981    2.187900   -1.090574
      3          1           0       -0.740933    2.496591    0.483678
      4          1           0        0.977817    2.768919    0.232165
      5          6           0        0.456971    0.685847    0.383980
      6          1           0        0.608234    0.648463    1.448886
      7          6           0        1.741646    0.192785   -0.325189
      8          1           0        2.522566    0.899741   -0.082382
      9          1           0        1.575841    0.216969   -1.392010
     10          6           0        2.223951   -1.216070    0.106520
     11          1           0        1.484404   -1.961407   -0.129013
     12          1           0        3.141324   -1.471098   -0.405134
     13          1           0        2.410834   -1.234164    1.171120
     14         35           0       -1.123680   -0.438369   -0.030700
 ---------------------------------------------------------------------
 Rotational constants (GHZ):      3.8751816      2.1529531      1.4674422
 Standard basis: 3-21G (6D, 7F)
 There are    77 symmetry adapted basis functions of A   symmetry.
 Integral buffers will be    262144 words long.
 Raffenetti 1 integral format.
 Two-electron integral symmetry is turned on.
    77 basis functions,   144 primitive gaussians,    77 cartesian basis functions
    34 alpha electrons       34 beta electrons
       nuclear repulsion energy       336.8191156351 Hartrees.
 NAtoms=   14 NActive=   14 NUniq=   14 SFac= 7.50D-01 NAtFMM=   80 NAOKFM=F Big=F
 One-electron integrals computed using PRISM.
 NBasis=    77 RedAO= T  NBF=    77
 NBsUse=    77 1.00D-06 NBFU=    77
 Initial guess read from the read-write file.
 B after Tr=     0.000000    0.000000    0.000000
         Rot=    1.000000    0.000000    0.000000    0.000000 Ang=   0.00 deg.
 Initial guess orbital symmetries:
       Occupied  (A) (A) (A) (A) (A) (A) (A) (A) (A) (A) (A) (A)
                 (A) (A) (A) (A) (A) (A) (A) (A) (A) (A) (A) (A)
                 (A) (A) (A) (A) (A) (A) (A) (A) (A) (A)
       Virtual   (A) (A) (A) (A) (A) (A) (A) (A) (A) (A) (A) (A)
                 (A) (A) (A) (A) (A) (A) (A) (A) (A) (A) (A) (A)
                 (A) (A) (A) (A) (A) (A) (A) (A) (A) (A) (A) (A)
                 (A) (A) (A) (A) (A) (A) (A)
 Harris functional with IExCor=  205 diagonalized for initial guess.
 ExpMin= 1.65D-01 ExpMax= 6.10D+03 ExpMxC= 6.10D+03 IAcc=1 IRadAn=         1 AccDes= 0.00D+00
 HarFok:  IExCor=  205 AccDes= 0.00D+00 IRadAn=         1 IDoV= 1
 ScaDFX=  1.000000  1.000000  1.000000  1.000000
 FoFCou: FMM=F IPFlag=           0 FMFlag=      100000 FMFlg1=           0
         NFxFlg=           0 DoJE=T BraDBF=F KetDBF=T FulRan=T
         Omega=  0.000000  0.000000  1.000000  0.000000  0.000000 ICntrl=     500 IOpCl=  0
         NMat0=    1 NMatS0=    1 NMatT0=    0 NMatD0=    1 NMtDS0=    0 NMtDT0=    0
         I1Cent=           4 NGrid=           0.
 Petite list used in FoFCou.
 Requested convergence on RMS density matrix=1.00D-08 within 128 cycles.
 Requested convergence on MAX density matrix=1.00D-06.
 Requested convergence on             energy=1.00D-06.
 No special actions if energy rises.
 Keep R1 ints in memory in canonical form, NReq=5367399.
 SCF Done:  E(RHF) =  -2715.91324315     A.U. after   11 cycles
             Convg  =    0.9119D-08             -V/T =  1.9969
 Calling FoFJK, ICntrl=      2127 FMM=F ISym2X=0 I1Cent= 0 IOpClX= 0 NMat=1 NMatS=1 NMatT=0.
 ***** Axes restored to original set *****
 -------------------------------------------------------------------
 Center     Atomic                   Forces (Hartrees/Bohr)
 Number     Number              X              Y              Z
 -------------------------------------------------------------------
      1        6           0.005497471    0.003006399   -0.004540850
      2        1           0.000035226   -0.002376515    0.000904816
      3        1           0.000271782    0.000402416    0.001378723
      4        1          -0.002822305   -0.000080830    0.000074599
      5        6          -0.020899940   -0.007982408   -0.002220367
      6        1           0.006133560    0.003795061   -0.000417146
      7        6           0.010752730    0.006893312   -0.001229085
      8        1          -0.003448880   -0.001660793    0.002400567
      9        1          -0.000098317   -0.002556587   -0.000593403
     10        6          -0.001695727   -0.002531777    0.008928505
     11        1           0.004311465    0.000507689   -0.000163859
     12        1          -0.001323430   -0.001303502   -0.001113445
     13        1          -0.000410890    0.002627464   -0.000672493
     14       35           0.003697254    0.001260072   -0.002736563
 -------------------------------------------------------------------
 Cartesian Forces:  Max     0.020899940 RMS     0.004803066

 GradGradGradGradGradGradGradGradGradGradGradGradGradGradGradGradGradGrad
 Berny optimization.
 Using GEDIIS/GDIIS optimizer.
 Internal  Forces:  Max     0.009772742 RMS     0.002499341
 Search for a local minimum.
 Step number   2 out of a maximum of   74
 All quantities printed in internal units (Hartrees-Bohrs-Radians)
 Mixed Optimization -- RFO/linear search
 Update second derivatives using D2CorX and points    1    2
 DE= -6.30D-03 DEPred=-9.61D-03 R= 6.56D-01
 SS=  1.41D+00  RLast= 3.00D-01 DXNew= 5.0454D-01 8.9971D-01
 Trust test= 6.56D-01 RLast= 3.00D-01 DXMaxT set to 5.05D-01
 Use linear search instead of GDIIS.
     Eigenvalues ---    0.00237   0.00237   0.00257   0.03410   0.04396
     Eigenvalues ---    0.04825   0.05019   0.05513   0.05545   0.05596
     Eigenvalues ---    0.05704   0.08501   0.08961   0.12365   0.15712
     Eigenvalues ---    0.16000   0.16000   0.16000   0.16000   0.16042
     Eigenvalues ---    0.16500   0.18281   0.23136   0.25061   0.28485
     Eigenvalues ---    0.28519   0.34315   0.36327   0.37230   0.37230
     Eigenvalues ---    0.37230   0.37230   0.37230   0.37230   0.37230
     Eigenvalues ---    0.385351000.000001000.000001000.000001000.00000
     Eigenvalues --- 1000.000001000.000001000.000001000.000001000.00000
     Eigenvalues --- 1000.000001000.000001000.000001000.000001000.00000
     Eigenvalues --- 1000.000001000.000001000.000001000.000001000.00000
     Eigenvalues --- 1000.000001000.000001000.000001000.000001000.00000
     Eigenvalues --- 1000.000001000.000001000.000001000.00000
 RFO step:  Lambda=-2.38794726D-03 EMin= 2.36819481D-03
 Quartic linear search produced a step of -0.03021.
 Iteration  1 RMS(Cart)=  0.02399243 RMS(Int)=  0.00052511
 Iteration  2 RMS(Cart)=  0.00064960 RMS(Int)=  0.00030439
 Iteration  3 RMS(Cart)=  0.00000018 RMS(Int)=  0.00030439
 Variable       Old X    -DE/DX   Delta X   Delta X   Delta X     New X
                                 (Linear)    (Quad)   (Total)
    R1        2.03966   0.00229  -0.00053   0.00951   0.00898   2.04863
    R2        2.04050   0.00142  -0.00056   0.00745   0.00689   2.04739
    R3        2.04294   0.00281  -0.00063   0.01154   0.01091   2.05385
    R4        2.90977  -0.00330   0.00001  -0.01119  -0.01118   2.89858
    R5        2.03381   0.00170  -0.00036   0.00681   0.00645   2.04026
    R6        2.92537  -0.00977  -0.00046  -0.02976  -0.03022   2.89515
    R7        3.74828   0.00349  -0.00420   0.04679   0.04259   3.79087
    R8        2.04281   0.00356  -0.00063   0.01343   0.01280   2.05561
    R9        2.04072   0.00238  -0.00057   0.00997   0.00941   2.05013
   R10        2.92991  -0.00600  -0.00060  -0.01616  -0.01675   2.91315
   R11        2.03348   0.00432  -0.00035   0.01349   0.01314   2.04662
   R12        2.04266   0.00201  -0.00062   0.00941   0.00879   2.05144
   R13        2.04285   0.00261  -0.00063   0.01101   0.01038   2.05323
    A1        1.89881  -0.00073   0.00036  -0.00541  -0.00510   1.89371
    A2        1.90484  -0.00072   0.00017  -0.00526  -0.00508   1.89976
    A3        1.91759   0.00151  -0.00021   0.01119   0.01095   1.92855
    A4        1.90094  -0.00026   0.00029  -0.00504  -0.00475   1.89619
    A5        1.93576   0.00018  -0.00076   0.00605   0.00527   1.94103
    A6        1.90558  -0.00002   0.00015  -0.00184  -0.00168   1.90390
    A7        1.90168   0.00034   0.00027   0.03201   0.03111   1.93279
    A8        1.92708   0.00349  -0.00050   0.02843   0.02714   1.95421
    A9        1.89042   0.00232   0.00061   0.00437   0.00553   1.89596
   A10        1.90242   0.00113   0.00025   0.02187   0.02054   1.92296
   A11        1.87463  -0.00184   0.00109  -0.05651  -0.05530   1.81933
   A12        1.96603  -0.00545  -0.00167  -0.03048  -0.03211   1.93392
   A13        1.86325   0.00017   0.00143  -0.01319  -0.01171   1.85154
   A14        1.89443   0.00257   0.00049   0.00549   0.00606   1.90049
   A15        2.00426  -0.00567  -0.00283  -0.00566  -0.00844   1.99582
   A16        1.89459  -0.00152   0.00048  -0.01074  -0.01028   1.88431
   A17        1.88283   0.00356   0.00084   0.02076   0.02153   1.90436
   A18        1.92110   0.00097  -0.00032   0.00234   0.00205   1.92315
   A19        1.93334   0.00000  -0.00069   0.00463   0.00394   1.93728
   A20        1.92474  -0.00124  -0.00043  -0.00476  -0.00518   1.91956
   A21        1.92112   0.00130  -0.00032   0.00992   0.00959   1.93071
   A22        1.89257   0.00062   0.00055  -0.00015   0.00041   1.89298
   A23        1.89945  -0.00063   0.00034  -0.00561  -0.00530   1.89415
   A24        1.89177  -0.00006   0.00057  -0.00439  -0.00381   1.88796
    D1       -3.12784   0.00139  -0.00042   0.02803   0.02798  -3.09986
    D2        1.06652  -0.00233  -0.00058  -0.03607  -0.03692   1.02961
    D3       -1.09374   0.00066   0.00141  -0.01936  -0.01809  -1.11183
    D4       -1.02790   0.00159  -0.00058   0.03248   0.03228  -0.99562
    D5       -3.11672  -0.00214  -0.00075  -0.03163  -0.03262   3.13385
    D6        1.00620   0.00086   0.00124  -0.01492  -0.01379   0.99241
    D7        1.06690   0.00136  -0.00060   0.02882   0.02859   1.09549
    D8       -1.02192  -0.00236  -0.00076  -0.03529  -0.03630  -1.05822
    D9        3.10100   0.00064   0.00123  -0.01858  -0.01747   3.08353
   D10        0.96895  -0.00004   0.00236   0.00171   0.00435   0.97330
   D11       -1.07024   0.00034   0.00070   0.01846   0.01947  -1.05077
   D12        3.05486   0.00110   0.00262   0.01514   0.01809   3.07296
   D13       -1.11942  -0.00329   0.00218  -0.06855  -0.06653  -1.18594
   D14        3.12458  -0.00291   0.00051  -0.05180  -0.05140   3.07317
   D15        0.96649  -0.00215   0.00244  -0.05512  -0.05278   0.91371
   D16        3.08489   0.00167   0.00171   0.00663   0.00814   3.09303
   D17        1.04569   0.00206   0.00005   0.02339   0.02326   1.06896
   D18       -1.11239   0.00282   0.00197   0.02006   0.02188  -1.09050
   D19        1.08202   0.00031  -0.00111   0.00482   0.00372   1.08574
   D20       -3.10591   0.00028  -0.00114   0.00452   0.00339  -3.10252
   D21       -1.01947   0.00024  -0.00090   0.00235   0.00145  -1.01802
   D22       -3.12618  -0.00051  -0.00052  -0.00074  -0.00129  -3.12747
   D23       -1.03092  -0.00054  -0.00055  -0.00103  -0.00162  -1.03254
   D24        1.05552  -0.00057  -0.00031  -0.00320  -0.00356   1.05196
   D25       -1.06180   0.00030   0.00038  -0.00013   0.00029  -1.06151
   D26        1.03345   0.00027   0.00036  -0.00043  -0.00004   1.03341
   D27        3.11989   0.00024   0.00060  -0.00260  -0.00198   3.11791
         Item               Value     Threshold  Converged?
 Maximum Force            0.009773     0.000450     NO 
 RMS     Force            0.002499     0.000300     NO 
 Maximum Displacement     0.108293     0.001800     NO 
 RMS     Displacement     0.024150     0.001200     NO 
 Predicted change in Energy=-1.271145D-03
 GradGradGradGradGradGradGradGradGradGradGradGradGradGradGradGradGradGrad

                          Input orientation:                          
 ---------------------------------------------------------------------
 Center     Atomic      Atomic             Coordinates (Angstroms)
 Number     Number       Type             X           Y           Z
 ---------------------------------------------------------------------
      1          6           0       -3.228886    0.353804    0.015935
      2          1           0       -2.902826   -0.679770    0.041669
      3          1           0       -2.887289    0.844676    0.919364
      4          1           0       -4.315272    0.378877   -0.003592
      5          6           0       -2.688421    1.056498   -1.235808
      6          1           0       -2.976011    2.097115   -1.244333
      7          6           0       -3.152421    0.369437   -2.524145
      8          1           0       -4.238906    0.343821   -2.477588
      9          1           0       -2.793351   -0.654297   -2.525192
     10          6           0       -2.719446    1.086408   -3.818337
     11          1           0       -1.640138    1.116672   -3.902754
     12          1           0       -3.117327    0.563979   -4.682764
     13          1           0       -3.095797    2.105521   -3.835479
     14         35           0       -0.685492    1.098921   -1.132475
 ---------------------------------------------------------------------
                    Distance matrix (angstroms):
                    1          2          3          4          5
     1  C    0.000000
     2  H    1.084090   0.000000
     3  H    1.083434   1.759126   0.000000
     4  H    1.086851   1.765725   1.762939   0.000000
     5  C    1.533865   2.166227   2.174669   2.150389   0.000000
     6  H    2.165954   3.061086   2.501611   2.507070   1.079660
     7  C    2.541279   2.783259   3.486245   2.775878   1.532045
     8  H    2.690334   3.029770   3.690124   2.475423   2.110434
     9  H    2.768264   2.569321   3.757754   3.121243   2.144841
    10  C    3.936735   4.248842   4.746833   4.195181   2.582889
    11  H    4.296768   4.514428   4.988206   4.785828   2.866204
    12  H    4.704720   4.890111   5.613871   4.833631   3.508282
    13  H    4.233157   4.777798   4.923590   4.376274   2.832789
    14  Br   2.888408   3.075536   3.020363   3.868869   2.006042
                    6          7          8          9         10
     6  H    0.000000
     7  C    2.157293   0.000000
     8  H    2.487944   1.087783   0.000000
     9  H    3.040433   1.084880   1.757309   0.000000
    10  C    2.777203   1.541573   2.158194   2.169733   0.000000
    11  H    3.132576   2.178514   3.063003   2.522679   1.083027
    12  H    3.767398   2.167652   2.483789   2.498854   1.085576
    13  H    2.593927   2.176417   2.500830   3.070004   1.086520
    14  Br   2.501076   2.924830   3.873791   3.075143   3.369122
                   11         12         13         14
    11  H    0.000000
    12  H    1.759537   0.000000
    13  H    1.761048   1.759178   0.000000
    14  Br   2.930207   4.336420   3.758862   0.000000
 Stoichiometry    C4H9Br
 Framework group  C1[X(C4H9Br)]
 Deg. of freedom    36
 Full point group                 C1      NOp   1
 Largest Abelian subgroup         C1      NOp   1
 Largest concise Abelian subgroup C1      NOp   1
                         Standard orientation:                         
 ---------------------------------------------------------------------
 Center     Atomic      Atomic             Coordinates (Angstroms)
 Number     Number       Type             X           Y           Z
 ---------------------------------------------------------------------
      1          6           0        0.188631    2.152029   -0.023439
      2          1           0        0.032582    2.222855   -1.093898
      3          1           0       -0.696877    2.523319    0.478404
      4          1           0        1.032363    2.779891    0.250696
      5          6           0        0.489328    0.703271    0.380817
      6          1           0        0.604216    0.620976    1.451188
      7          6           0        1.732963    0.156895   -0.327708
      8          1           0        2.540443    0.847493   -0.094639
      9          1           0        1.567437    0.185153   -1.399514
     10          6           0        2.141475   -1.263584    0.110248
     11          1           0        1.362927   -1.980004   -0.121164
     12          1           0        3.048931   -1.563879   -0.404359
     13          1           0        2.332254   -1.294356    1.179445
     14         35           0       -1.118247   -0.423803   -0.031019
 ---------------------------------------------------------------------
 Rotational constants (GHZ):      3.8109561      2.2108703      1.4849817
 Standard basis: 3-21G (6D, 7F)
 There are    77 symmetry adapted basis functions of A   symmetry.
 Integral buffers will be    262144 words long.
 Raffenetti 1 integral format.
 Two-electron integral symmetry is turned on.
    77 basis functions,   144 primitive gaussians,    77 cartesian basis functions
    34 alpha electrons       34 beta electrons
       nuclear repulsion energy       337.3875355217 Hartrees.
 NAtoms=   14 NActive=   14 NUniq=   14 SFac= 7.50D-01 NAtFMM=   80 NAOKFM=F Big=F
 One-electron integrals computed using PRISM.
 NBasis=    77 RedAO= T  NBF=    77
 NBsUse=    77 1.00D-06 NBFU=    77
 Initial guess read from the read-write file.
 B after Tr=     0.000000    0.000000    0.000000
         Rot=    1.000000    0.000000    0.000000    0.000000 Ang=   0.00 deg.
 Initial guess orbital symmetries:
       Occupied  (A) (A) (A) (A) (A) (A) (A) (A) (A) (A) (A) (A)
                 (A) (A) (A) (A) (A) (A) (A) (A) (A) (A) (A) (A)
                 (A) (A) (A) (A) (A) (A) (A) (A) (A) (A)
       Virtual   (A) (A) (A) (A) (A) (A) (A) (A) (A) (A) (A) (A)
                 (A) (A) (A) (A) (A) (A) (A) (A) (A) (A) (A) (A)
                 (A) (A) (A) (A) (A) (A) (A) (A) (A) (A) (A) (A)
                 (A) (A) (A) (A) (A) (A) (A)
 Harris functional with IExCor=  205 diagonalized for initial guess.
 ExpMin= 1.65D-01 ExpMax= 6.10D+03 ExpMxC= 6.10D+03 IAcc=1 IRadAn=         1 AccDes= 0.00D+00
 HarFok:  IExCor=  205 AccDes= 0.00D+00 IRadAn=         1 IDoV= 1
 ScaDFX=  1.000000  1.000000  1.000000  1.000000
 FoFCou: FMM=F IPFlag=           0 FMFlag=      100000 FMFlg1=           0
         NFxFlg=           0 DoJE=T BraDBF=F KetDBF=T FulRan=T
         Omega=  0.000000  0.000000  1.000000  0.000000  0.000000 ICntrl=     500 IOpCl=  0
         NMat0=    1 NMatS0=    1 NMatT0=    0 NMatD0=    1 NMtDS0=    0 NMtDT0=    0
         I1Cent=           4 NGrid=           0.
 Petite list used in FoFCou.
 Requested convergence on RMS density matrix=1.00D-08 within 128 cycles.
 Requested convergence on MAX density matrix=1.00D-06.
 Requested convergence on             energy=1.00D-06.
 No special actions if energy rises.
 Keep R1 ints in memory in canonical form, NReq=5367399.
 SCF Done:  E(RHF) =  -2715.91453791     A.U. after   11 cycles
             Convg  =    0.4154D-08             -V/T =  1.9969
 Calling FoFJK, ICntrl=      2127 FMM=F ISym2X=0 I1Cent= 0 IOpClX= 0 NMat=1 NMatS=1 NMatT=0.
 ***** Axes restored to original set *****
 -------------------------------------------------------------------
 Center     Atomic                   Forces (Hartrees/Bohr)
 Number     Number              X              Y              Z
 -------------------------------------------------------------------
      1        6           0.001646901    0.001504072   -0.000997024
      2        1          -0.000359470    0.001147544   -0.000379103
      3        1          -0.000414956   -0.000344245   -0.001273682
      4        1           0.000824446   -0.000176496    0.000025553
      5        6          -0.004424470   -0.000637023    0.000688928
      6        1           0.001382016   -0.001023698    0.000503162
      7        6           0.002324137    0.000813250    0.000438980
      8        1           0.000465646   -0.001084776   -0.000882393
      9        1          -0.000683555    0.000940228   -0.000360045
     10        6          -0.001005321   -0.000185353    0.000706625
     11        1          -0.001287992   -0.000238653    0.000433277
     12        1           0.000397946    0.000744274    0.000788862
     13        1           0.000486738   -0.001078161    0.000048045
     14       35           0.000647932   -0.000380963    0.000258815
 -------------------------------------------------------------------
 Cartesian Forces:  Max     0.004424470 RMS     0.001097348

 GradGradGradGradGradGradGradGradGradGradGradGradGradGradGradGradGradGrad
 Berny optimization.
 Using GEDIIS/GDIIS optimizer.
 Internal  Forces:  Max     0.003715695 RMS     0.000808925
 Search for a local minimum.
 Step number   3 out of a maximum of   74
 All quantities printed in internal units (Hartrees-Bohrs-Radians)
 Mixed Optimization -- En-DIIS/RFO-DIIS
 Update second derivatives using D2CorX and points    1    2    3
 DE= -1.29D-03 DEPred=-1.27D-03 R= 1.02D+00
 SS=  1.41D+00  RLast= 1.74D-01 DXNew= 8.4853D-01 5.2325D-01
 Trust test= 1.02D+00 RLast= 1.74D-01 DXMaxT set to 5.23D-01
 Use linear search instead of GDIIS.
     Eigenvalues ---    0.00237   0.00237   0.00251   0.03401   0.03896
     Eigenvalues ---    0.04883   0.05019   0.05468   0.05474   0.05587
     Eigenvalues ---    0.05675   0.08651   0.09590   0.12546   0.15378
     Eigenvalues ---    0.16000   0.16000   0.16000   0.16053   0.16186
     Eigenvalues ---    0.16211   0.18117   0.22805   0.24787   0.28364
     Eigenvalues ---    0.28814   0.33624   0.37101   0.37230   0.37230
     Eigenvalues ---    0.37230   0.37230   0.37230   0.37230   0.37816
     Eigenvalues ---    0.405571000.000001000.000001000.000001000.00000
     Eigenvalues --- 1000.000001000.000001000.000001000.000001000.00000
     Eigenvalues --- 1000.000001000.000001000.000001000.000001000.00000
     Eigenvalues --- 1000.000001000.000001000.000001000.000001000.00000
     Eigenvalues --- 1000.000001000.000001000.000001000.000001000.00000
     Eigenvalues --- 1000.000001000.000001000.000001000.00000
 RFO step:  Lambda=-4.44897460D-04 EMin= 2.36801904D-03
 Quartic linear search produced a step of  0.07598.
 Iteration  1 RMS(Cart)=  0.05366656 RMS(Int)=  0.00100795
 Iteration  2 RMS(Cart)=  0.00150475 RMS(Int)=  0.00005418
 Iteration  3 RMS(Cart)=  0.00000083 RMS(Int)=  0.00005418
 Variable       Old X    -DE/DX   Delta X   Delta X   Delta X     New X
                                 (Linear)    (Quad)   (Total)
    R1        2.04863  -0.00121   0.00068  -0.00360  -0.00292   2.04571
    R2        2.04739  -0.00135   0.00052  -0.00416  -0.00363   2.04376
    R3        2.05385  -0.00083   0.00083  -0.00252  -0.00169   2.05216
    R4        2.89858  -0.00372  -0.00085  -0.01452  -0.01537   2.88321
    R5        2.04026  -0.00136   0.00049  -0.00395  -0.00346   2.03681
    R6        2.89515  -0.00116  -0.00230  -0.00680  -0.00909   2.88605
    R7        3.79087   0.00065   0.00324   0.00111   0.00434   3.79521
    R8        2.05561  -0.00048   0.00097  -0.00139  -0.00042   2.05519
    R9        2.05013  -0.00111   0.00071  -0.00334  -0.00262   2.04750
   R10        2.91315  -0.00241  -0.00127  -0.01080  -0.01207   2.90108
   R11        2.04662  -0.00132   0.00100  -0.00342  -0.00242   2.04421
   R12        2.05144  -0.00113   0.00067  -0.00351  -0.00284   2.04860
   R13        2.05323  -0.00118   0.00079  -0.00355  -0.00276   2.05046
    A1        1.89371   0.00039  -0.00039   0.00296   0.00257   1.89628
    A2        1.89976   0.00002  -0.00039  -0.00063  -0.00101   1.89875
    A3        1.92855  -0.00040   0.00083  -0.00249  -0.00166   1.92689
    A4        1.89619   0.00008  -0.00036   0.00103   0.00067   1.89687
    A5        1.94103  -0.00030   0.00040  -0.00230  -0.00190   1.93913
    A6        1.90390   0.00023  -0.00013   0.00150   0.00137   1.90527
    A7        1.93279  -0.00050   0.00236   0.00228   0.00438   1.93717
    A8        1.95421   0.00105   0.00206   0.00626   0.00816   1.96238
    A9        1.89596  -0.00063   0.00042  -0.00575  -0.00526   1.89069
   A10        1.92296   0.00034   0.00156   0.01075   0.01209   1.93505
   A11        1.81933   0.00007  -0.00420  -0.00598  -0.01012   1.80921
   A12        1.93392  -0.00043  -0.00244  -0.00876  -0.01115   1.92277
   A13        1.85154   0.00109  -0.00089   0.01109   0.01019   1.86173
   A14        1.90049   0.00045   0.00046   0.00595   0.00641   1.90690
   A15        1.99582  -0.00102  -0.00064  -0.00758  -0.00820   1.98761
   A16        1.88431  -0.00052  -0.00078  -0.00732  -0.00814   1.87617
   A17        1.90436  -0.00034   0.00164  -0.00304  -0.00138   1.90298
   A18        1.92315   0.00037   0.00016   0.00100   0.00117   1.92432
   A19        1.93728  -0.00063   0.00030  -0.00533  -0.00503   1.93225
   A20        1.91956   0.00040  -0.00039   0.00238   0.00199   1.92155
   A21        1.93071   0.00006   0.00073   0.00048   0.00121   1.93192
   A22        1.89298   0.00013   0.00003   0.00172   0.00176   1.89474
   A23        1.89415   0.00019  -0.00040   0.00022  -0.00019   1.89397
   A24        1.88796  -0.00013  -0.00029   0.00066   0.00037   1.88833
    D1       -3.09986   0.00044   0.00213   0.01800   0.02017  -3.07970
    D2        1.02961  -0.00038  -0.00281  -0.00211  -0.00495   1.02466
    D3       -1.11183  -0.00010  -0.00137   0.00883   0.00745  -1.10438
    D4       -0.99562   0.00047   0.00245   0.01854   0.02103  -0.97459
    D5        3.13385  -0.00036  -0.00248  -0.00157  -0.00408   3.12977
    D6        0.99241  -0.00007  -0.00105   0.00937   0.00832   1.00073
    D7        1.09549   0.00052   0.00217   0.01936   0.02157   1.11706
    D8       -1.05822  -0.00030  -0.00276  -0.00076  -0.00355  -1.06177
    D9        3.08353  -0.00001  -0.00133   0.01019   0.00885   3.09238
   D10        0.97330   0.00015   0.00033  -0.08830  -0.08789   0.88541
   D11       -1.05077  -0.00004   0.00148  -0.08846  -0.08693  -1.13770
   D12        3.07296  -0.00014   0.00137  -0.08896  -0.08752   2.98543
   D13       -1.18594  -0.00019  -0.00505  -0.10355  -0.10865  -1.29459
   D14        3.07317  -0.00038  -0.00391  -0.10371  -0.10769   2.96549
   D15        0.91371  -0.00048  -0.00401  -0.10420  -0.10827   0.80544
   D16        3.09303  -0.00023   0.00062  -0.09752  -0.09688   2.99614
   D17        1.06896  -0.00042   0.00177  -0.09767  -0.09592   0.97303
   D18       -1.09050  -0.00052   0.00166  -0.09817  -0.09651  -1.18702
   D19        1.08574  -0.00012   0.00028   0.01640   0.01669   1.10243
   D20       -3.10252  -0.00011   0.00026   0.01669   0.01695  -3.08557
   D21       -1.01802   0.00002   0.00011   0.01934   0.01945  -0.99857
   D22       -3.12747   0.00036  -0.00010   0.02350   0.02340  -3.10406
   D23       -1.03254   0.00038  -0.00012   0.02379   0.02366  -1.00888
   D24        1.05196   0.00051  -0.00027   0.02644   0.02616   1.07812
   D25       -1.06151  -0.00026   0.00002   0.01332   0.01335  -1.04816
   D26        1.03341  -0.00024   0.00000   0.01361   0.01361   1.04702
   D27        3.11791  -0.00011  -0.00015   0.01626   0.01611   3.13402
         Item               Value     Threshold  Converged?
 Maximum Force            0.003716     0.000450     NO 
 RMS     Force            0.000809     0.000300     NO 
 Maximum Displacement     0.166690     0.001800     NO 
 RMS     Displacement     0.053639     0.001200     NO 
 Predicted change in Energy=-2.494948D-04
 GradGradGradGradGradGradGradGradGradGradGradGradGradGradGradGradGradGrad

                          Input orientation:                          
 ---------------------------------------------------------------------
 Center     Atomic      Atomic             Coordinates (Angstroms)
 Number     Number       Type             X           Y           Z
 ---------------------------------------------------------------------
      1          6           0       -3.246545    0.378640    0.008123
      2          1           0       -2.946742   -0.660393    0.057434
      3          1           0       -2.906258    0.879668    0.904137
      4          1           0       -4.330758    0.428529   -0.027884
      5          6           0       -2.672990    1.038968   -1.242018
      6          1           0       -2.914126    2.089127   -1.269188
      7          6           0       -3.121519    0.344345   -2.526059
      8          1           0       -4.204054    0.255612   -2.470970
      9          1           0       -2.713281   -0.658989   -2.550917
     10          6           0       -2.745905    1.102853   -3.806832
     11          1           0       -1.671257    1.173934   -3.908100
     12          1           0       -3.140912    0.587027   -4.674650
     13          1           0       -3.157829    2.106580   -3.792738
     14         35           0       -0.669407    1.015759   -1.105833
 ---------------------------------------------------------------------
                    Distance matrix (angstroms):
                    1          2          3          4          5
     1  C    0.000000
     2  H    1.082545   0.000000
     3  H    1.081511   1.757934   0.000000
     4  H    1.085957   1.763103   1.761076   0.000000
     5  C    1.525729   2.156697   2.164664   2.143583   0.000000
     6  H    2.160507   3.053007   2.487206   2.511029   1.077831
     7  C    2.537496   2.777496   3.478383   2.776728   1.527233
     8  H    2.660425   2.968624   3.669477   2.452473   2.113794
     9  H    2.812424   2.618779   3.787097   3.188201   2.144271
    10  C    3.915227   4.252285   4.718978   4.152941   2.566645
    11  H    4.295443   4.551602   4.976891   4.762841   2.851259
    12  H    4.688597   4.897589   5.591383   4.799301   3.493732
    13  H    4.176145   4.746002   4.860991   4.285527   2.807319
    14  Br   2.878969   3.057602   3.010316   3.861645   2.008341
                    6          7          8          9         10
     6  H    0.000000
     7  C    2.160324   0.000000
     8  H    2.543613   1.087561   0.000000
     9  H    3.038965   1.083493   1.750798   0.000000
    10  C    2.727759   1.535187   2.151405   2.163902   0.000000
    11  H    3.057149   2.168298   3.053476   2.507462   1.081747
    12  H    3.728928   2.162340   2.469071   2.499133   1.084073
    13  H    2.535350   2.170546   2.503545   3.064004   1.085057
    14  Br   2.493505   2.912163   3.864603   3.011722   3.408053
                   11         12         13         14
    11  H    0.000000
    12  H    1.758392   0.000000
    13  H    1.758703   1.757013   0.000000
    14  Br   2.980172   4.362179   3.821204   0.000000
 Stoichiometry    C4H9Br
 Framework group  C1[X(C4H9Br)]
 Deg. of freedom    36
 Full point group                 C1      NOp   1
 Largest Abelian subgroup         C1      NOp   1
 Largest concise Abelian subgroup C1      NOp   1
                         Standard orientation:                         
 ---------------------------------------------------------------------
 Center     Atomic      Atomic             Coordinates (Angstroms)
 Number     Number       Type             X           Y           Z
 ---------------------------------------------------------------------
      1          6           0        0.188349    2.138637   -0.004039
      2          1           0        0.006337    2.221210   -1.067974
      3          1           0       -0.682156    2.502009    0.524968
      4          1           0        1.038430    2.762835    0.254887
      5          6           0        0.495856    0.692382    0.372303
      6          1           0        0.617936    0.588352    1.438133
      7          6           0        1.711576    0.142605   -0.370806
      8          1           0        2.512832    0.865508   -0.235939
      9          1           0        1.491050    0.094668   -1.430535
     10          6           0        2.182836   -1.227558    0.136508
     11          1           0        1.418425   -1.976882   -0.019588
     12          1           0        3.078420   -1.532799   -0.392616
     13          1           0        2.413023   -1.185642    1.196039
     14         35           0       -1.124743   -0.423304   -0.030605
 ---------------------------------------------------------------------
 Rotational constants (GHZ):      3.8740457      2.1801274      1.4843518
 Standard basis: 3-21G (6D, 7F)
 There are    77 symmetry adapted basis functions of A   symmetry.
 Integral buffers will be    262144 words long.
 Raffenetti 1 integral format.
 Two-electron integral symmetry is turned on.
    77 basis functions,   144 primitive gaussians,    77 cartesian basis functions
    34 alpha electrons       34 beta electrons
       nuclear repulsion energy       337.6472878611 Hartrees.
 NAtoms=   14 NActive=   14 NUniq=   14 SFac= 7.50D-01 NAtFMM=   80 NAOKFM=F Big=F
 One-electron integrals computed using PRISM.
 NBasis=    77 RedAO= T  NBF=    77
 NBsUse=    77 1.00D-06 NBFU=    77
 Initial guess read from the read-write file.
 B after Tr=     0.000000    0.000000    0.000000
         Rot=    1.000000    0.000000    0.000000    0.000000 Ang=   0.00 deg.
 Initial guess orbital symmetries:
       Occupied  (A) (A) (A) (A) (A) (A) (A) (A) (A) (A) (A) (A)
                 (A) (A) (A) (A) (A) (A) (A) (A) (A) (A) (A) (A)
                 (A) (A) (A) (A) (A) (A) (A) (A) (A) (A)
       Virtual   (A) (A) (A) (A) (A) (A) (A) (A) (A) (A) (A) (A)
                 (A) (A) (A) (A) (A) (A) (A) (A) (A) (A) (A) (A)
                 (A) (A) (A) (A) (A) (A) (A) (A) (A) (A) (A) (A)
                 (A) (A) (A) (A) (A) (A) (A)
 Harris functional with IExCor=  205 diagonalized for initial guess.
 ExpMin= 1.65D-01 ExpMax= 6.10D+03 ExpMxC= 6.10D+03 IAcc=1 IRadAn=         1 AccDes= 0.00D+00
 HarFok:  IExCor=  205 AccDes= 0.00D+00 IRadAn=         1 IDoV= 1
 ScaDFX=  1.000000  1.000000  1.000000  1.000000
 FoFCou: FMM=F IPFlag=           0 FMFlag=      100000 FMFlg1=           0
         NFxFlg=           0 DoJE=T BraDBF=F KetDBF=T FulRan=T
         Omega=  0.000000  0.000000  1.000000  0.000000  0.000000 ICntrl=     500 IOpCl=  0
         NMat0=    1 NMatS0=    1 NMatT0=    0 NMatD0=    1 NMtDS0=    0 NMtDT0=    0
         I1Cent=           4 NGrid=           0.
 Petite list used in FoFCou.
 Requested convergence on RMS density matrix=1.00D-08 within 128 cycles.
 Requested convergence on MAX density matrix=1.00D-06.
 Requested convergence on             energy=1.00D-06.
 No special actions if energy rises.
 Keep R1 ints in memory in canonical form, NReq=5367399.
 SCF Done:  E(RHF) =  -2715.91467055     A.U. after   10 cycles
             Convg  =    0.6398D-08             -V/T =  1.9969
 Calling FoFJK, ICntrl=      2127 FMM=F ISym2X=0 I1Cent= 0 IOpClX= 0 NMat=1 NMatS=1 NMatT=0.
 ***** Axes restored to original set *****
 -------------------------------------------------------------------
 Center     Atomic                   Forces (Hartrees/Bohr)
 Number     Number              X              Y              Z
 -------------------------------------------------------------------
      1        6           0.000132622    0.000188053    0.000437366
      2        1          -0.000182295   -0.000026243    0.000163333
      3        1          -0.000115677   -0.000203131    0.000183710
      4        1           0.000087496   -0.000063079    0.000173272
      5        6          -0.000196336    0.000044974    0.000380067
      6        1          -0.000467883   -0.000309918   -0.000107626
      7        6          -0.001391189   -0.000176719    0.000289663
      8        1           0.000072587   -0.000098826   -0.000313188
      9        1          -0.000118345    0.000217921    0.000339980
     10        6           0.000439059    0.000051149   -0.000754195
     11        1           0.000092758    0.000118512   -0.000257989
     12        1           0.000388294    0.000335935   -0.000256409
     13        1          -0.000036554   -0.000182538   -0.000047937
     14       35           0.001295464    0.000103911   -0.000230049
 -------------------------------------------------------------------
 Cartesian Forces:  Max     0.001391189 RMS     0.000385724

 GradGradGradGradGradGradGradGradGradGradGradGradGradGradGradGradGradGrad
 Berny optimization.
 Using GEDIIS/GDIIS optimizer.
 Internal  Forces:  Max     0.001474148 RMS     0.000395166
 Search for a local minimum.
 Step number   4 out of a maximum of   74
 All quantities printed in internal units (Hartrees-Bohrs-Radians)
 Mixed Optimization -- En-DIIS/RFO-DIIS
 Swaping is turned off.
 Update second derivatives using D2CorX and points    2    3    4
 DE= -1.33D-04 DEPred=-2.49D-04 R= 5.32D-01
 SS=  1.41D+00  RLast= 3.04D-01 DXNew= 8.8000D-01 9.1126D-01
 Trust test= 5.32D-01 RLast= 3.04D-01 DXMaxT set to 8.80D-01
     Eigenvalues ---    0.00236   0.00237   0.00418   0.03174   0.03622
     Eigenvalues ---    0.04876   0.05041   0.05483   0.05501   0.05573
     Eigenvalues ---    0.05677   0.08586   0.09802   0.12522   0.13896
     Eigenvalues ---    0.16000   0.16000   0.16014   0.16082   0.16175
     Eigenvalues ---    0.16267   0.18069   0.22537   0.25368   0.28300
     Eigenvalues ---    0.29363   0.34389   0.37084   0.37230   0.37230
     Eigenvalues ---    0.37230   0.37230   0.37230   0.37252   0.37789
     Eigenvalues ---    0.402841000.000001000.000001000.000001000.00000
     Eigenvalues --- 1000.000001000.000001000.000001000.000001000.00000
     Eigenvalues --- 1000.000001000.000001000.000001000.000001000.00000
     Eigenvalues --- 1000.000001000.000001000.000001000.000001000.00000
     Eigenvalues --- 1000.000001000.000001000.000001000.000001000.00000
     Eigenvalues --- 1000.000001000.000001000.000001000.00000
 En-DIIS/RFO-DIIS IScMMF=        0 using points:     4    3
 RFO step:  Lambda=-2.55093967D-05.
 DIIS coeffs:      0.70114      0.29886
 Iteration  1 RMS(Cart)=  0.02175163 RMS(Int)=  0.00016261
 Iteration  2 RMS(Cart)=  0.00024609 RMS(Int)=  0.00001118
 Iteration  3 RMS(Cart)=  0.00000002 RMS(Int)=  0.00001118
 Variable       Old X    -DE/DX   Delta X   Delta X   Delta X     New X
                                  (DIIS)     (GDIIS)  (Total)
    R1        2.04571  -0.00002   0.00087  -0.00082   0.00005   2.04576
    R2        2.04376   0.00002   0.00109  -0.00099   0.00009   2.04385
    R3        2.05216  -0.00010   0.00050  -0.00034   0.00016   2.05232
    R4        2.88321   0.00086   0.00459  -0.00445   0.00014   2.88335
    R5        2.03681  -0.00019   0.00103  -0.00158  -0.00054   2.03626
    R6        2.88605   0.00088   0.00272  -0.00070   0.00202   2.88807
    R7        3.79521   0.00128  -0.00130   0.01150   0.01020   3.80541
    R8        2.05519  -0.00008   0.00013   0.00021   0.00034   2.05553
    R9        2.04750  -0.00025   0.00078  -0.00112  -0.00033   2.04717
   R10        2.90108   0.00147   0.00361  -0.00059   0.00302   2.90410
   R11        2.04421   0.00012   0.00072  -0.00063   0.00009   2.04430
   R12        2.04860  -0.00010   0.00085  -0.00082   0.00002   2.04863
   R13        2.05046  -0.00016   0.00083  -0.00093  -0.00010   2.05036
    A1        1.89628  -0.00027  -0.00077  -0.00021  -0.00098   1.89530
    A2        1.89875  -0.00022   0.00030  -0.00179  -0.00149   1.89726
    A3        1.92689   0.00023   0.00050   0.00035   0.00085   1.92774
    A4        1.89687  -0.00024  -0.00020  -0.00103  -0.00123   1.89564
    A5        1.93913   0.00034   0.00057   0.00165   0.00221   1.94134
    A6        1.90527   0.00013  -0.00041   0.00092   0.00051   1.90578
    A7        1.93717  -0.00031  -0.00131   0.00028  -0.00098   1.93619
    A8        1.96238   0.00103  -0.00244   0.00726   0.00484   1.96722
    A9        1.89069   0.00002   0.00157  -0.00190  -0.00034   1.89036
   A10        1.93505  -0.00046  -0.00361   0.00184  -0.00174   1.93330
   A11        1.80921   0.00024   0.00302  -0.00450  -0.00150   1.80771
   A12        1.92277  -0.00060   0.00333  -0.00414  -0.00082   1.92195
   A13        1.86173   0.00045  -0.00305   0.00788   0.00483   1.86657
   A14        1.90690  -0.00026  -0.00191  -0.00221  -0.00412   1.90278
   A15        1.98761  -0.00030   0.00245  -0.00108   0.00136   1.98897
   A16        1.87617  -0.00009   0.00243  -0.00422  -0.00177   1.87440
   A17        1.90298   0.00007   0.00041   0.00067   0.00106   1.90404
   A18        1.92432   0.00015  -0.00035  -0.00099  -0.00135   1.92297
   A19        1.93225   0.00026   0.00150  -0.00036   0.00114   1.93339
   A20        1.92155   0.00072  -0.00059   0.00492   0.00432   1.92587
   A21        1.93192  -0.00019  -0.00036  -0.00020  -0.00056   1.93136
   A22        1.89474  -0.00048  -0.00053  -0.00186  -0.00239   1.89235
   A23        1.89397  -0.00009   0.00006  -0.00113  -0.00108   1.89289
   A24        1.88833  -0.00026  -0.00011  -0.00151  -0.00162   1.88671
    D1       -3.07970  -0.00013  -0.00603  -0.00087  -0.00690  -3.08660
    D2        1.02466  -0.00006   0.00148  -0.00899  -0.00750   1.01716
    D3       -1.10438   0.00001  -0.00223  -0.00716  -0.00939  -1.11376
    D4       -0.97459  -0.00009  -0.00629   0.00019  -0.00610  -0.98069
    D5        3.12977  -0.00002   0.00122  -0.00793  -0.00670   3.12307
    D6        1.00073   0.00005  -0.00249  -0.00610  -0.00858   0.99215
    D7        1.11706  -0.00008  -0.00645   0.00054  -0.00591   1.11115
    D8       -1.06177  -0.00002   0.00106  -0.00758  -0.00652  -1.06828
    D9        3.09238   0.00006  -0.00265  -0.00575  -0.00840   3.08398
   D10        0.88541   0.00002   0.02627   0.00761   0.03385   0.91926
   D11       -1.13770   0.00002   0.02598   0.00945   0.03542  -1.10228
   D12        2.98543   0.00023   0.02616   0.01321   0.03936   3.02479
[...]
 ! A18   A(9,7,10)             110.25           -DE/DX =    0.0                 !
 ! A19   A(7,10,11)            110.7942         -DE/DX =    0.0                 !
 ! A20   A(7,10,12)            110.2689         -DE/DX =    0.0                 !
 ! A21   A(7,10,13)            110.6369         -DE/DX =    0.0                 !
 ! A22   A(11,10,12)           108.4395         -DE/DX =    0.0                 !
 ! A23   A(11,10,13)           108.4918         -DE/DX =    0.0                 !
 ! A24   A(12,10,13)           108.1285         -DE/DX =    0.0                 !
 ! D1    D(2,1,5,6)           -176.8059         -DE/DX =    0.0                 !
 ! D2    D(2,1,5,7)             58.4922         -DE/DX =    0.0                 !
 ! D3    D(2,1,5,14)           -63.5619         -DE/DX =    0.0                 !
 ! D4    D(3,1,5,6)            -56.143          -DE/DX =    0.0                 !
 ! D5    D(3,1,5,7)            179.1551         -DE/DX =    0.0                 !
 ! D6    D(3,1,5,14)            57.1011         -DE/DX =    0.0                 !
 ! D7    D(4,1,5,6)             63.684          -DE/DX =    0.0                 !
 ! D8    D(4,1,5,7)            -61.0178         -DE/DX =    0.0                 !
 ! D9    D(4,1,5,14)           176.9281         -DE/DX =    0.0                 !
 ! D10   D(1,5,7,8)             52.4932         -DE/DX =    0.0                 !
 ! D11   D(1,5,7,9)            -63.3831         -DE/DX =    0.0                 !
 ! D12   D(1,5,7,10)           172.9864         -DE/DX =    0.0                 !
 ! D13   D(6,5,7,8)            -72.3297         -DE/DX =    0.0                 !
 ! D14   D(6,5,7,9)            171.794          -DE/DX =    0.0                 !
 ! D15   D(6,5,7,10)            48.1635         -DE/DX =    0.0                 !
 ! D16   D(14,5,7,8)           173.4975         -DE/DX =    0.0                 !
 ! D17   D(14,5,7,9)            57.6212         -DE/DX =    0.0                 !
 ! D18   D(14,5,7,10)          -66.0093         -DE/DX =    0.0                 !
 ! D19   D(5,7,10,11)           62.3457         -DE/DX =    0.0                 !
 ! D20   D(5,7,10,12)         -177.5937         -DE/DX =    0.0                 !
 ! D21   D(5,7,10,13)          -58.022          -DE/DX =    0.0                 !
 ! D22   D(8,7,10,11)         -178.4384         -DE/DX =    0.0                 !
 ! D23   D(8,7,10,12)          -58.3777         -DE/DX =    0.0                 !
 ! D24   D(8,7,10,13)           61.1939         -DE/DX =    0.0                 !
 ! D25   D(9,7,10,11)          -60.6302         -DE/DX =    0.0                 !
 ! D26   D(9,7,10,12)           59.4304         -DE/DX =    0.0                 !
 ! D27   D(9,7,10,13)          179.002          -DE/DX =    0.0                 !
 --------------------------------------------------------------------------------
 GradGradGradGradGradGradGradGradGradGradGradGradGradGradGradGradGradGrad

 1|1|UNPC-DESKTOP-K2VF0AK|Freq|RHF|3-21G|C4H9Br1|MELIH|03-Dec-2024|0||#
 N Geom=AllCheck Guess=TCheck SCRF=Check GenChk RHF/3-21G Freq||Title C
 ard Required||0,1|C,-3.239334436,0.3718787064,0.0127666243|H,-2.933722
 204,-0.6657806498,0.0543827531|H,-2.8937032496,0.8693960987,0.90864329
 24|H,-4.3241185224,0.4147839465,-0.0110534239|C,-2.6830995058,1.043034
 6529,-1.2405905831|H,-2.9364071732,2.0902674016,-1.2612904953|C,-3.135
 7156413,0.3517000307,-2.5266233601|H,-4.2197357813,0.2800913441,-2.480
 2776529|H,-2.7430645966,-0.6578411412,-2.5423097653|C,-2.7360047972,1.
 0981805438,-3.8100275724|H,-1.6598247104,1.1614611051,-3.8980882119|H,
 -3.1214223804,0.5806477043,-4.6809456833|H,-3.1409308339,2.1046909605,
 -3.808807652|Br,-0.6744995578,1.0391500666,-1.1212756596||Version=IA32
 W-G09RevA.02|State=1-A|HF=-2715.9147199|RMSD=6.578e-010|RMSF=2.472e-00
 5|ZeroPoint=0.131829|Thermal=0.1382659|Dipole=-0.9707968,-0.064974,-0.
 0871251|DipoleDeriv=-0.0999996,-0.0312981,0.0056419,0.0232448,0.065411
 9,0.0030252,-0.0520832,0.0315501,-0.0452552,0.0671681,0.0611802,0.0037
 23,0.0212582,-0.0951732,0.0264091,0.0203981,-0.0296231,0.0775045,0.075
 1684,-0.0357962,-0.0524295,-0.0277185,0.0405209,-0.0790008,-0.0171593,
 -0.0470029,-0.0885905,-0.1602752,-0.0022915,0.014261,-0.0250445,0.0727
 757,0.0191314,0.0217947,0.0184799,0.067935,1.107796,0.0567817,0.091026
 8,0.0221572,0.1059759,0.0197524,0.0439145,0.0097928,0.1015032,-0.12934
 63,0.030404,-0.0150298,0.0213392,-0.0692794,0.0065928,-0.0105131,0.027
 2143,0.0427819,-0.0911811,-0.0325517,-0.0197168,0.0175797,0.0753223,0.
 0286859,0.0896461,-0.0015122,0.0447757,-0.1590447,-0.0368771,0.0228307
 ,-0.0461636,0.062448,-0.0056563,-0.0288079,0.0005147,0.0132857,0.06231
 18,0.0673173,0.0033746,0.0284962,-0.1048167,0.0076157,-0.0169437,0.038
 0037,0.0276889,0.0497676,-0.0247071,0.0118175,-0.0361703,0.081858,0.00
 34545,0.0225733,0.0316096,-0.0261773,-0.0913667,-0.0190604,0.0405068,-
 0.0002953,0.0676738,0.0209076,-0.0010409,0.011146,0.0966507,0.0581297,
 -0.0422719,-0.0773043,-0.0426575,0.0222959,-0.0845773,-0.0627089,-0.06
 06095,-0.1266562,0.0377423,0.0828477,0.0038246,0.0680911,-0.1325504,0.
 0349925,0.026989,-0.0245238,0.0538536,-0.7268703,-0.0736769,-0.0325266
 ,-0.0241168,-0.1924627,-0.0013327,-0.0360587,-0.0050398,-0.2392999|Pol
 ar=65.0014663,2.3249685,39.7278007,2.2300401,-0.6411108,48.1339302|Pol
 arDeriv=8.5532151,0.3516889,-2.3175431,-0.6834325,-0.1203498,-3.033423
 5,-0.7187689,-1.2086901,4.2451094,0.135604,-1.1084212,-4.0720196,0.760
 2814,0.1143511,0.0709602,-2.0744588,-2.8236778,-0.5220841,-0.3082314,-
 1.9082652,1.0029248,0.2811981,-0.1668226,0.9474348,-0.3366788,0.305727
 4,-7.1967579,0.0629117,1.3692134,-0.3297451,-0.3068829,0.0439019,0.393
 6717,0.8661346,-1.9158794,0.6854504,-0.130864,0.8668186,0.6083848,1.94
 10423,0.0701943,1.3664802,0.5242244,0.7130806,1.4894489,-0.1806899,2.5
 05,2.0500004,0.0651621,-0.1068978,0.4354803,0.6673102,2.0057046,7.9669
 867,-10.3396448,-0.5210101,-0.1155993,1.8047491,0.1987939,-0.5114961,0
 .052617,-2.2959603,-0.6504607,-0.047579,0.4394588,0.7858266,0.4604495,
 -0.0452527,-0.0508375,-2.3581335,0.4850837,0.5103759,-19.4255481,-2.20
 42511,3.6213681,-1.5203658,-0.2635664,3.2807604,-0.8096157,-0.3691816,
 -5.1096709,-0.252427,-0.1908055,3.039164,-0.9248218,-0.421734,0.081864
 3,-0.3886926,2.104025,0.2988069,0.0305565,2.7787749,-1.2828197,0.13800
 42,0.0759039,-0.8665261,1.7208459,-2.0413603,7.2492243,0.0729791,0.023
 4764,0.3917676,0.140262,0.0316815,0.0088572,-1.3643871,1.6139764,-0.25
 014,8.913306,1.4804375,-2.9231593,0.5945492,0.2096311,-2.2979919,0.336
 0947,-1.4427504,4.9005218,-0.0387526,0.6371641,-4.4439215,-0.3098923,-
 0.0298357,0.3023017,-1.8232581,-2.8238395,0.3642614,-9.9306788,-1.5470
 588,-0.1688196,-0.7857585,-0.1078095,-0.8205983,-0.5882154,-2.1793474,
 -1.2536291,0.1164375,-0.1999676,1.0326761,-0.1340226,0.1090225,-0.1020
 262,-2.1316829,0.1810759,-0.0166913,-0.2183826,-1.9456854,1.4784646,-0
 .0918661,0.0721946,1.0220414,-0.3821436,0.6035805,-7.3337355,-0.043706
 9,-0.407661,-0.1809992,0.1561333,0.0063718,-0.0551741,0.9008714,-1.677
 3699,-0.2003373,-3.9399605,-0.842027,2.6472205,1.1496269,0.203417,3.02
 86154,-0.1356501,2.3877627,-3.709982,0.4695415,0.6733274,4.9908562,0.2
 704073,0.5709168,-0.4648145,2.0040299,3.5018782,-1.0134707,5.7813515,0
 .5429091,0.1349253,-1.2878257,-0.3369584,1.1081661,0.0956928,1.535318,
 0.9276671,-0.301282,-0.6740307,-0.9675595,-0.5126845,-0.2269186,0.0945
 908,2.4388726,-0.4507724,0.2380268,-1.2758851,-0.921142,-0.7004575,-2.
 6609795,-0.2181392,-1.7290238,-0.2119559,-1.3332298,-1.8285088,-0.3258
 728,-2.5574954,-2.2292028,-0.5965438,-0.3121565,-0.3963294,-2.1795618,
 -2.3418362,-8.2049651,-1.1928799,2.4099133,-1.3179435,-0.5966735,0.261
 3505,-1.056941,0.5568636,-1.8357416,7.0618437,0.1982548,-1.3044021,0.2
 043432,-0.1346651,0.1517813,-0.2654695,-1.2872238,1.9103338,-0.37113,2
 3.4836462,1.4588973,-0.6669463,1.7177318,0.1221606,-0.4374975,-0.10331
 01,7.1607923,1.2089296,0.1345814,0.7951434,-0.2711864,1.0668174,0.1147
 683,-0.0530749,6.7301799,0.2312979,0.5149104|HyperPolar=-89.0206563,-1
 .4024994,-16.9362269,-3.7311083,-4.6191264,-0.8608864,-1.6037503,-19.3
 554022,-3.3934911,-14.8592957|PG=C01 [X(C4H9Br1)]|NImag=0||0.61367596,
 -0.02450418,0.62725013,0.05237829,0.05437202,0.56628520,-0.08210229,0.
 08171337,-0.00327112,0.08540870,0.07788505,-0.31947497,0.00818529,-0.0
 8722966,0.35068795,-0.00112658,0.00402353,-0.05899942,-0.00051820,-0.0
 1132301,0.06448878,-0.08860811,-0.04487222,-0.08024376,0.00345648,0.00
 533616,0.01049806,0.09350875,-0.04472072,-0.12344354,-0.11331810,-0.01
 331834,-0.01662779,-0.03179201,0.05128938,0.13006710,-0.07495873,-0.10
 900423,-0.25182746,0.00106092,0.00077290,0.00233616,0.08373441,0.12019
 953,0.27902323,-0.33246786,0.01299918,-0.00816949,-0.01006052,0.000336
 12,-0.00063613,-0.01159908,0.00086973,-0.00040890,0.36768859,0.0126815
 8,-0.05962825,0.00074027,0.03864093,0.00057954,0.00113217,-0.01873902,
 0.00071829,0.00059861,-0.01293700,0.05834478,-0.00908788,0.00058535,-0
 .05942590,-0.00129661,-0.00028930,-0.00097639,-0.03295919,0.00291841,0
 .00058760,0.00823733,-0.00297879,0.06266833,-0.08941243,-0.01837402,0.
 03148892,0.00236042,0.00582165,-0.00977598,0.00250732,0.00614083,-0.01
 207561,-0.01555028,-0.01766645,0.03118391,0.35262903,-0.01750318,-0.12
 194134,0.03555635,-0.01812383,-0.01847333,0.03662531,0.00804953,0.0092
 5002,-0.01669736,0.00034931,-0.00026417,-0.00139791,-0.03103488,0.6472
 9176,0.03183194,0.03721760,-0.15919630,0.00250515,0.00099308,-0.003792
 70,0.01652459,0.01892290,-0.02829924,-0.00019479,0.00036491,-0.0021807
 6,-0.00545058,-0.00686442,0.47753877,0.00533527,-0.01623272,0.00093859
 ,-0.00022647,-0.00145045,0.00277307,0.00004526,0.00069097,-0.00029787,
 0.00057688,0.00032172,-0.00059730,-0.06277085,0.07730506,-0.00074487,0
 .07691898,0.00369986,-0.01336473,-0.00014200,-0.00154197,0.00042859,0.
 00216457,0.00033855,0.00080246,0.00032573,-0.00069721,-0.00000957,-0.0
 0022252,0.06916277,-0.34960454,0.00518925,-0.06856161,0.37086534,-0.00
 799359,0.03367583,-0.00180322,0.00294529,0.00260269,-0.00510064,-0.001
 00116,-0.00062197,0.00106172,0.00014247,-0.00079768,0.00125220,-0.0007
 2582,0.00572397,-0.06004178,0.00109111,-0.00562385,0.06865584,0.005892
 51,0.00771062,0.01152653,-0.00022332,-0.00005290,-0.00064316,-0.001247
 94,-0.00163674,0.00339234,-0.00042345,0.00018865,0.00088893,-0.0840007
 3,-0.01496233,-0.02537515,0.00556027,0.00444806,0.00905591,0.63347312,
 0.00651196,0.01068084,0.01664440,0.00021276,0.00065418,0.00096337,-0.0
 0197253,-0.00172082,0.00479559,0.00006126,0.00007656,-0.00053681,-0.01
 525990,-0.12312240,-0.03762727,-0.01235165,-0.01597229,-0.03393497,-0.
 04622104,0.62151930,-0.00885781,-0.01544311,-0.03265363,-0.00092248,-0
 .00106852,0.00183023,0.00171763,0.00231287,-0.00359459,-0.00116867,-0.
 00069445,0.00087784,-0.02319956,-0.03833265,-0.15576618,-0.00053060,0.
 00066227,-0.00172981,-0.01696698,-0.00171327,0.48879064,0.00015543,0.0
 0047766,0.00145261,-0.00011377,-0.00004902,-0.00008172,0.00058710,-0.0
 0004150,0.00001673,0.00132795,0.00015877,-0.00041700,-0.01542289,-0.00
 127894,-0.00131909,0.00039983,-0.00063853,-0.00024704,-0.32869858,-0.0
 1398239,0.01085347,0.36194260,-0.00005673,0.00064181,0.00098865,0.0002
 0080,-0.00007597,0.00000340,0.00007496,-0.00026860,0.00023022,0.000299
 80,0.00034382,-0.00009269,-0.01866413,-0.00240225,-0.00157566,0.000452
 29,-0.00012643,0.00076390,-0.01467294,-0.06058414,-0.00044994,0.018228
 99,0.06085461,-0.00099045,0.00049064,0.00040892,-0.00007851,0.00006593
 ,0.00000037,0.00023483,-0.00006906,0.00045573,0.00037463,-0.00012723,-
 0.00100893,-0.03202321,-0.00265337,-0.00375015,0.00066273,0.00008446,0
 .00086889,0.01051437,-0.00091147,-0.05623687,-0.01181987,-0.00076930,0
 .07057622,-0.00052896,0.00036917,0.00079224,0.00028960,0.00010954,0.00
 027694,-0.00004266,-0.00019666,0.00013196,0.00002865,0.00014582,0.0000
 2345,0.00234013,-0.01527608,-0.00319253,0.00012420,-0.00184101,-0.0024
 2091,-0.09869430,0.10104046,0.00286655,-0.01426670,0.03721231,0.001522
 44,0.10412028,-0.00021764,0.00062001,0.00079086,0.00021290,0.00077980,
 -0.00064976,-0.00018732,0.00036802,-0.00005940,-0.00012158,-0.00002635
 ,0.00007524,0.00741320,-0.02028561,-0.00182566,-0.00115448,-0.00003643
 ,-0.00288759,0.09704306,-0.30168713,-0.00481333,-0.00038758,0.00373992
 ,0.00010430,-0.10741113,0.33072986,0.00016514,-0.00070677,0.00181794,-
 0.00007736,0.00073137,-0.00054809,-0.00026226,0.00034357,0.00019913,-0
 .00008274,-0.00004936,0.00002361,0.01285487,-0.03579705,-0.00470789,-0
 .00219710,-0.00222352,-0.00511033,0.00025585,-0.00239239,-0.05819216,0
 .00049695,-0.00118236,-0.00065503,-0.00084602,0.00569925,0.07037395,-0
 .00106408,-0.00141587,-0.00224245,-0.00005842,-0.00019600,0.00018946,0
 .00087241,0.00017774,-0.00078182,0.00063109,-0.00007308,-0.00023897,0.
 00370082,0.00784403,-0.01258552,-0.00026481,0.00036343,0.00106745,-0.1
 0231682,-0.01288974,0.02076855,-0.00864640,-0.02040995,0.03627304,0.00
 433493,0.00654544,-0.01279891,0.64176052,-0.00188676,-0.00289386,-0.00
 409564,-0.00014629,0.00038260,-0.00006215,0.00041129,0.00081671,-0.001
 41832,-0.00002381,-0.00011729,0.00025804,0.00738376,0.01069646,-0.0165
 2555,0.00000444,0.00109373,-0.00119371,-0.01379978,-0.12013300,0.03917
 777,-0.00012751,-0.00177733,0.00337585,-0.01175401,-0.01617580,0.03349
 490,-0.01453889,0.60913061,-0.00224849,-0.00339857,-0.00283603,-0.0001
 7129,0.00019410,-0.00014131,0.00067917,0.00086688,-0.00087757,0.000306
 61,-0.00011464,0.00002853,0.00679286,0.01747044,-0.03264030,0.00059630
 ,0.00093417,0.00222612,0.01942355,0.03395222,-0.14942518,0.00046898,0.
 00202227,-0.00449777,0.00003049,0.00010197,-0.00106674,0.03103891,0.05
 948343,0.54544556,0.00011029,0.00007840,0.00022372,-0.00001952,-0.0000
 0774,-0.00003230,-0.00000425,0.00000130,0.00009140,0.00008273,0.000036
 79,-0.00009622,-0.00105960,-0.00001445,0.00019977,-0.00002044,-0.00002
 683,0.00011955,-0.00874893,-0.00065311,0.00068648,0.00118978,-0.001077
 66,0.00102746,0.00054287,-0.00046436,0.00015433,-0.34375975,-0.0145574
 6,0.02253300,0.37727603,0.00007197,-0.00007084,-0.00002020,-0.00004474
 ,-0.00002237,0.00001722,0.00007854,0.00001589,0.00001765,0.00009953,-0
 .00000310,-0.00007591,-0.00014415,0.00033109,-0.00077737,0.00016745,0.
 00003688,0.00002857,-0.02152948,-0.00143602,0.00198590,-0.00085905,-0.
 00126316,0.00385737,-0.00029962,0.00015461,-0.00094063,-0.01338876,-0.
 06091451,0.00072411,0.01720784,0.06128938,-0.00026438,0.00020747,-0.00
 016638,0.00005969,-0.00000733,0.00005810,-0.00012994,-0.00006092,-0.00
 005135,-0.00030726,-0.00006449,0.00021896,0.00252958,-0.00055984,0.001
 39841,-0.00007149,-0.00014169,-0.00016857,0.03587721,0.00228332,-0.003
 97837,0.00134699,0.00335866,-0.00560157,-0.00073101,-0.00048804,0.0014
 1818,0.01856090,0.00045023,-0.05955570,-0.02305520,-0.00412337,0.06517
 726,0.00043618,0.00016043,0.00047723,-0.00000278,-0.00001313,-0.000001
 12,-0.00005983,-0.00007252,0.00017433,0.00000450,0.00005131,-0.0000567
 0,-0.00129284,-0.00149409,0.00237250,-0.00006784,-0.00022536,-0.000239
 34,0.00344219,0.00608721,0.01125457,0.00041029,0.00070592,-0.00023683,
 0.00015073,0.00037807,-0.00079444,-0.09513993,-0.04926371,-0.08180183,
 -0.01250403,-0.02014721,-0.03287638,0.09867919,0.00023311,0.00083614,0
 .00087680,0.00006542,0.00001349,-0.00010260,-0.00018045,-0.00017697,0.
 00031630,-0.00002452,0.00001664,-0.00002982,-0.00135894,-0.00241399,0.
 00324261,-0.00011879,0.00033456,0.00030228,0.00822832,0.01011886,0.019
 20134,0.00042889,0.00075827,-0.00106421,0.00065001,0.00085202,-0.00079
 875,-0.04945787,-0.12528067,-0.11015415,-0.00034799,-0.00142794,-0.000
 60587,0.05649841,0.13388071,-0.00107866,-0.00119390,-0.00124845,-0.000
 04230,0.00005812,0.00002840,0.00028462,0.00029247,-0.00055368,0.000070
 82,-0.00006357,0.00008779,0.00348686,0.00515781,-0.00401626,0.00001078
 ,0.00015966,0.00038927,-0.01264339,-0.01732332,-0.02625651,0.00064243,
 -0.00073291,0.00096909,-0.00079029,0.00027683,0.00105991,-0.08005599,-
 0.10748519,-0.23581791,0.00054016,0.00219038,0.00341571,0.08882876,0.1
 1895616,0.26123818,0.00002081,-0.00028467,-0.00019587,-0.00005620,0.00
 002140,0.00004299,-0.00000795,0.00004799,-0.00005378,-0.00004051,-0.00
 001561,0.00003755,0.00006517,0.00065388,-0.00041201,0.00017370,0.00009
 398,-0.00040760,0.00432090,-0.01240499,0.00062898,0.00056033,-0.000262
 11,-0.00092208,0.00016585,-0.00126373,0.00241347,-0.10021284,0.0984706
 8,0.00109375,-0.01322266,0.03840192,0.00094977,0.00555700,-0.01447755,
 0.00070833,0.10285861,-0.00015177,0.00048395,0.00015657,0.00004086,0.0
 0010396,-0.00027203,-0.00002391,0.00002022,0.00007638,-0.00002930,-0.0
 0006599,0.00001729,0.00032960,0.00058376,-0.00110441,0.00015484,0.0008
 6344,0.00096516,0.00731110,-0.01827286,-0.00067723,-0.00079471,0.00024
 415,-0.00028332,-0.00176129,-0.00015437,0.00311838,0.09724494,-0.29531
 755,-0.00276268,-0.00060635,0.00335382,-0.00029982,0.00720330,-0.01755
 809,-0.00033853,-0.10880499,0.32567547,0.00033134,-0.00004584,0.000013
 82,0.00001402,-0.00024937,0.00015281,0.00000444,-0.00011909,0.00004347
 ,0.00000893,0.00005631,-0.00002156,-0.00126873,0.00135358,0.00216883,0
 .00010421,-0.00087960,-0.00054716,-0.01370144,0.03469070,-0.00215699,-
 0.00013609,-0.00102676,0.00149955,0.00218001,0.00303575,-0.00546979,0.
 00162918,-0.00531761,-0.05885097,0.00053698,-0.00264702,-0.00087489,0.
 01361110,-0.02993493,0.00046019,-0.00357592,0.00122509,0.06351617,-0.0
 3144272,0.00217486,-0.00515544,0.00134809,-0.00051102,-0.00096533,0.00
 059250,0.00076854,-0.00002539,-0.00019869,-0.00279441,0.00437870,-0.09
 409325,0.00548597,-0.00415939,-0.02578398,-0.00457412,-0.00138634,-0.0
 2833492,0.00182171,0.00286989,0.00057503,-0.00203156,-0.00453856,0.001
 43538,-0.00038486,0.00071822,0.00016328,-0.00017195,0.00125799,0.00013
 746,0.00038576,-0.00188847,0.00038716,-0.00013807,0.00003788,-0.000182
 20,-0.00011231,0.00026196,0.17539685,-0.01204255,0.00030465,-0.0007352
 7,-0.00068220,0.00104433,-0.00072800,0.00039706,0.00017901,-0.00015359
 ,-0.00118153,0.00003508,0.00176940,0.00625065,-0.02964545,0.00036998,0
 .02077292,0.00468899,0.00099739,-0.01205459,-0.00012108,-0.00014766,-0
 .00113506,-0.00008470,-0.00210057,-0.00098750,0.00112144,0.00070336,0.
 00019458,0.00048990,0.00068046,0.00043159,-0.00004373,0.00005167,0.000
 13135,0.00004696,0.00004600,-0.00017619,0.00004009,-0.00014119,0.00008
 146,0.02194451,0.02189987,-0.00078002,-0.00036910,-0.00020721,-0.00066
 596,0.00066369,0.00091856,0.00012453,0.00149686,0.00182722,0.00199793,
 -0.00213132,-0.00381750,0.00041514,-0.02671445,-0.00173758,-0.00028692
 ,0.00004747,-0.02160457,0.00110990,-0.00150842,-0.00125735,-0.00153749
 ,-0.00302846,0.00015666,0.00063958,0.00085731,-0.00082383,-0.00014204,
 -0.00199073,-0.00292913,-0.00023668,-0.00128980,-0.00071185,-0.0002051
 7,0.00024427,-0.00030758,0.00017917,0.00006652,0.00859429,-0.00061196,
 0.03365619||-0.00002213,-0.00001835,0.00000988,-0.00001218,-0.00000598
 ,0.00002582,-0.00001309,-0.00001454,-0.00001549,0.00002865,-0.00000630
 ,0.00000464,-0.00000044,0.00000253,-0.00003543,-0.00000164,-0.00000264
 ,-0.00001901,0.00001555,0.00009321,-0.00000191,-0.00000129,-0.00003077
 ,0.00002649,-0.00000931,-0.00002250,0.00001824,-0.00002464,-0.00003948
 ,0.00005802,0.00000070,0.00001958,-0.00002887,0.00001314,0.00002075,-0
 .00000002,0.00002118,0.00000601,-0.00003649,0.00000551,-0.00000154,-0.
 00000588|||@


 "PERFECTION IS NOT AN ACCIDENT"
         --  EAGLE ELECTRIC MANUFACTURING CO.,INC. NY
 Job cpu time:  0 days  0 hours  0 minutes 25.0 seconds.
 File lengths (MBytes):  RWF=     17 Int=      0 D2E=      0 Chk=      1 Scr=      1
 Normal termination of Gaussian 09 at Tue Dec 03 17:35:29 2024.
