 Entering Link 1 = C:\G09W\l1.exe PID=     15208.
  
 Copyright (c) 1988,1990,1992,1993,1995,1998,2003,2009, Gaussian, Inc.
                  All Rights Reserved.
  
 This is part of the Gaussian(R) 09 program.  It is based on
 the Gaussian(R) 03 system (copyright 2003, Gaussian, Inc.),
 the Gaussian(R) 98 system (copyright 1998, Gaussian, Inc.),
 the Gaussian(R) 94 system (copyright 1995, Gaussian, Inc.),
 the Gaussian 92(TM) system (copyright 1992, Gaussian, Inc.),
 the Gaussian 90(TM) system (copyright 1990, Gaussian, Inc.),
 the Gaussian 88(TM) system (copyright 1988, Gaussian, Inc.),
 the Gaussian 86(TM) system (copyright 1986, Carnegie Mellon
 University), and the Gaussian 82(TM) system (copyright 1983,
 Carnegie Mellon University). Gaussian is a federally registered
 trademark of Gaussian, Inc.
  
 This software contains proprietary and confidential information,
 including trade secrets, belonging to Gaussian, Inc.
  
 This software is provided under written license and may be
 used, copied, transmitted, or stored only in accord with that
 written license.
  
 The following legend is applicable only to US Government
 contracts under FAR:
  
                    RESTRICTED RIGHTS LEGEND
  
 Use, reproduction and disclosure by the US Government is
 subject to restrictions as set forth in subparagraphs (a)
 and (c) of the Commercial Computer Software - Restricted
 Rights clause in FAR 52.227-19.
  
 Gaussian, Inc.
 340 Quinnipiac St., Bldg. 40, Wallingford CT 06492
  
  
 ---------------------------------------------------------------
 Warning -- This program may not be used in any manner that
 competes with the business of Gaussian, Inc. or will provide
 assistance to any competitor of Gaussian, Inc.  The licensee
 of this program is prohibited from giving any competitor of
 Gaussian, Inc. access to this program.  By using this program,
 the user acknowledges that Gaussian, Inc. is engaged in the
 business of creating and licensing software in the field of
 computational chemistry and represents and warrants to the
 licensee that it is not a competitor of Gaussian, Inc. and that
 it will not use this program in any manner prohibited above.
 ---------------------------------------------------------------
  

 Cite this work as:
 Gaussian 09, Revision A.02,
 M. J. Frisch, G. W. Trucks, H. B. Schlegel, G. E. Scuseria, 
 M. A. Robb, J. R. Cheeseman, G. Scalmani, V. Barone, B. Mennucci, 
 G. A. Petersson, H. Nakatsuji, M. Caricato, X. Li, H. P. Hratchian, 
 A. F. Izmaylov, J. Bloino, G. Zheng, J. L. Sonnenberg, M. Hada, 
 M. Ehara, K. Toyota, R. Fukuda, J. Hasegawa, M. Ishida, T. Nakajima, 
 Y. Honda, O. Kitao, H. Nakai, T. Vreven, J. A. Montgomery, Jr., 
 J. E. Peralta, F. Ogliaro, M. Bearpark, J. J. Heyd, E. Brothers, 
 K. N. Kudin, V. N. Staroverov, R. Kobayashi, J. Normand, 
 K. Raghavachari, A. Rendell, J. C. Burant, S. S. Iyengar, J. Tomasi, 
 M. Cossi, N. Rega, J. M. Millam, M. Klene, J. E. Knox, J. B. Cross, 
 V. Bakken, C. Adamo, J. Jaramillo, R. Gomperts, R. E. Stratmann, 
 O. Yazyev, A. J. Austin, R. Cammi, C. Pomelli, J. W. Ochterski, 
 R. L. Martin, K. Morokuma, V. G. Zakrzewski, G. A. Voth, 
 P. Salvador, J. J. Dannenberg, S. Dapprich, A. D. Daniels, 
 O. Farkas, J. B. Foresman, J. V. Ortiz, J. Cioslowski, 
 and D. J. Fox, Gaussian, Inc., Wallingford CT, 2009.
 
 ******************************************
 Gaussian 09:  IA32W-G09RevA.02 11-Jun-2009
                10-Dec-2024 
 ******************************************
 %chk=C:\G09W\ethoxide\Cyclopentadienewater.chk
 -----------------------------------------------------------------
 # rzindo=(nstates=20) scrf=(cpcm,solvent=water) geom=connectivity
 -----------------------------------------------------------------
 1/38=1,57=2/1;
 2/12=2,17=6,18=5,40=1/2;
 3/5=2,16=1,25=1,41=400000,70=2101,72=1,116=1/1,2,8,3;
 4/5=3,35=1/1;
 5/5=2,35=1,38=5,53=1/2;
 8/6=1,108=20/1;
 9/41=20,42=1,49=10/14;
 6/7=2,8=2,9=2,10=2/1;
 99/5=1,9=1/99;
 -------------------
 Title Card Required
 -------------------
 Symbolic Z-matrix:
 Charge =  0 Multiplicity = 1
 C                    -0.74211  -0.98339  -0.00005 
 C                     0.74261  -0.98304   0.00013 
 C                     1.1815    0.27183  -0.00013 
 C                    -0.00031   1.22661  -0.00006 
 C                    -1.18162   0.27123   0.00002 
 H                    -1.34183  -1.86835   0.0003 
 H                     1.34275  -1.86773  -0.00055 
 H                     2.19996   0.59587   0.00037 
 H                    -0.00044   1.86262   0.88095 
 H                    -0.00052   1.86351  -0.88027 
 H                    -2.20026   0.59472  -0.00025 
 
                          Input orientation:                          
 ---------------------------------------------------------------------
 Center     Atomic      Atomic             Coordinates (Angstroms)
 Number     Number       Type             X           Y           Z
 ---------------------------------------------------------------------
      1          6           0       -0.742108   -0.983385   -0.000052
      2          6           0        0.742608   -0.983043    0.000125
      3          6           0        1.181495    0.271826   -0.000132
      4          6           0       -0.000314    1.226605   -0.000056
      5          6           0       -1.181622    0.271225    0.000023
      6          1           0       -1.341832   -1.868349    0.000297
      7          1           0        1.342745   -1.867727   -0.000547
      8          1           0        2.199961    0.595866    0.000374
      9          1           0       -0.000436    1.862619    0.880947
     10          1           0       -0.000522    1.863506   -0.880273
     11          1           0       -2.200264    0.594720   -0.000247
 ---------------------------------------------------------------------
                    Distance matrix (angstroms):
                    1          2          3          4          5
     1  C    0.000000
     2  C    1.484716   0.000000
     3  C    2.296912   1.329405   0.000000
     4  C    2.331162   2.331197   1.519301   0.000000
     5  C    1.329368   2.296922   2.363117   1.519289   0.000000
     6  H    1.069032   2.264654   3.308705   3.373190   2.145564
     7  H    2.264657   1.069033   2.145621   3.373233   3.308707
     8  H    3.339132   2.148681   1.068773   2.288895   3.397130
     9  H    3.070175   3.070139   2.168844   1.086591   2.168816
    10  H    3.070754   3.070860   2.169161   1.086474   2.169165
    11  H    2.148635   3.339136   3.397139   2.288899   1.068775
                    6          7          8          9         10
     6  H    0.000000
     7  H    2.684577   0.000000
     8  H    4.314702   2.608469   0.000000
     9  H    4.061405   4.061607   2.687344   0.000000
    10  H    4.062174   4.062066   2.687857   1.761220   0.000000
    11  H    2.608374   4.314691   4.400225   2.687622   2.687588
                   11
    11  H    0.000000
 Stoichiometry    C5H6
 Framework group  C1[X(C5H6)]
 Deg. of freedom    27
 Full point group                 C1      NOp   1
 Largest Abelian subgroup         C1      NOp   1
 Largest concise Abelian subgroup C1      NOp   1
                         Standard orientation:                         
 ---------------------------------------------------------------------
 Center     Atomic      Atomic             Coordinates (Angstroms)
 Number     Number       Type             X           Y           Z
 ---------------------------------------------------------------------
      1          6           0       -0.742112   -0.983382   -0.000052
      2          6           0        0.742604   -0.983046    0.000125
      3          6           0        1.181496    0.271821   -0.000132
      4          6           0       -0.000309    1.226605   -0.000056
      5          6           0       -1.181621    0.271230    0.000023
      6          1           0       -1.341840   -1.868344    0.000297
      7          1           0        1.342737   -1.867732   -0.000547
      8          1           0        2.199963    0.595857    0.000374
      9          1           0       -0.000429    1.862619    0.880947
     10          1           0       -0.000515    1.863506   -0.880273
     11          1           0       -2.200262    0.594729   -0.000247
 ---------------------------------------------------------------------
 Rotational constants (GHZ):      8.5207081      8.1930683      4.2876179
 Standard basis: VSTO-6G (5D, 7F)
 There are    26 symmetry adapted basis functions of A   symmetry.
 Integral buffers will be    262144 words long.
 Regular integral format.
 Two-electron integral symmetry is turned off.
    26 basis functions,   156 primitive gaussians,    26 cartesian basis functions
    13 alpha electrons       13 beta electrons
       nuclear repulsion energy        81.5722854928 Hartrees.
 ------------------------------------------------------------------------------
 Polarizable Continuum Model (PCM)
 =================================
 Model                : C-PCM.
 Atomic radii         : UFF (Universal Force Field).
 Polarization charges : Total charges.
 Charge compensation  : None.
 Solution method      : Matrix inversion.
 Cavity type          : Scaled VdW (van der Waals Surface) (Alpha=1.100).
 Cavity algorithm     : GePol (No added spheres)
                        Default sphere list used, NSphG=   11.
                        Lebedev-Laikov grids with approx.  5.0 points / Ang**2.
                        Smoothing algorithm: Karplus/York (Gamma=1.0000).
                        Polarization charges: spherical gaussians, with
                                              point-specific exponents (IZeta= 3).
                        Self-potential: point-specific (ISelfS= 7).
                        Self-field    : sphere-specific E.n sum rule (ISelfD= 2).
 Solvent              : Water, Eps=  78.355300 Eps(inf)=   1.777849
 ------------------------------------------------------------------------------
 Spheres list:
 ISph  on   Nord    Re0     Alpha      Xe            Ye            Ze
    1   C      1    1.926   1.100     -0.742112     -0.983382     -0.000052
    2   C      2    1.926   1.100      0.742604     -0.983046      0.000125
    3   C      3    1.926   1.100      1.181496      0.271821     -0.000132
    4   C      4    1.926   1.100     -0.000309      1.226605     -0.000056
    5   C      5    1.926   1.100     -1.181621      0.271230      0.000023
    6   H      6    1.443   1.100     -1.341840     -1.868344      0.000297
    7   H      7    1.443   1.100      1.342737     -1.867732     -0.000547
    8   H      8    1.443   1.100      2.199963      0.595857      0.000374
    9   H      9    1.443   1.100     -0.000429      1.862619      0.880947
   10   H     10    1.443   1.100     -0.000515      1.863506     -0.880273
   11   H     11    1.443   1.100     -2.200262      0.594729     -0.000247
 ------------------------------------------------------------------------------
 Do NDO integrals.
 One-electron integrals computed using PRISM.
 Generate ZINDO/S integrals.
 NDO Nuclear repulsion=    53.128006642296 Hartrees.
 NBasis=    26 RedAO= F  NBF=    26
 NBsUse=    26 1.00D-04 NBFU=    26
 DipDrv:  will hold  3 matrices at once.
 Simple Huckel Guess.
 Initial guess orbital symmetries:
       Occupied  (A) (A) (A) (A) (A) (A) (A) (A) (A) (A) (A) (A)
                 (A)
       Virtual   (A) (A) (A) (A) (A) (A) (A) (A) (A) (A) (A) (A)
                 (A)
 The electronic state of the initial guess is 1-A.
 Requested convergence on RMS density matrix=1.00D-08 within 128 cycles.
 Requested convergence on MAX density matrix=1.00D-06.
 Requested convergence on             energy=1.00D-06.
 No special actions if energy rises.
 Overlap will be assumed to be unity.
 Error on total polarization charges =  0.00005
 SCF Done:  E(RZINDO/S) =  -32.4364100186     A.U. after   11 cycles
             Convg  =    0.7349D-09             -V/T =  0.7860
 Range of M.O.s used for correlation:     1    26
 NBasis=    26 NAE=    13 NBE=    13 NFC=     0 NFV=     0
 NROrb=     26 NOA=    13 NOB=    13 NVA=    13 NVB=    13
 NEqPCM:  Using non-equilibrium solvation (IEInf=1, Eps=  78.3553, EpsInf=   1.7778)
 Orbital symmetries:
       Occupied  (A) (A) (A) (A) (A) (A) (A) (A) (A) (A) (A) (A)
                 (A)
       Virtual   (A) (A) (A) (A) (A) (A) (A) (A) (A) (A) (A) (A)
                 (A)
    80 initial guesses have been made.
 Convergence on wavefunction:    0.001000000000000
 Iteration     1 Dimension    80 NMult    80
 CISAX will form    80 AO SS matrices at one time.
 New state      3 was old state      4
 New state      4 was old state      5
 New state      5 was old state      3
 New state      6 was old state      8
 New state      7 was old state      9
 New state      8 was old state     10
 New state      9 was old state      7
 New state     10 was old state      6
 New state     11 was old state     13
 New state     12 was old state     15
 New state     13 was old state     14
 New state     14 was old state     11
 New state     15 was old state     12
 New state     17 was old state     23
 New state     18 was old state     17
 New state     19 was old state     24
 Iteration     2 Dimension   160 NMult   160
 New state      9 was old state     10
 New state     10 was old state      9
 New state     12 was old state     13
 New state     13 was old state     12
 Iteration     3 Dimension   165 NMult   165
 ***********************************************************************
 Excited states from <AA,BB:AA,BB> singles matrix:
 ***********************************************************************
 
 Ground to excited state transition electric dipole moments (Au):
       state          X           Y           Z        Dip. S.      Osc.
         1        -1.2850     -0.0004      0.0009      1.6511      0.1906
         2         0.0004     -1.2653      0.0004      1.6010      0.2380
         3        -0.0003     -0.0005     -0.0796      0.0063      0.0010
         4        -0.0001      0.0004      0.0001      0.0000      0.0000
         5         0.0005     -1.9362     -0.0002      3.7487      0.6476
         6        -0.0005     -0.0023      0.0232      0.0005      0.0001
         7         0.0001     -0.0001      0.7469      0.5579      0.1104
         8         0.0022      0.0002      0.0000      0.0000      0.0000
         9         0.3985      0.0002      0.0007      0.1588      0.0320
        10        -0.0002     -0.0003      0.0000      0.0000      0.0000
        11        -0.0004      0.0009      0.0000      0.0000      0.0000
        12        -0.0003      0.0004      0.0000      0.0000      0.0000
        13        -0.0005      0.0000     -0.1556      0.0242      0.0052
        14         0.0007      0.0000      0.0001      0.0000      0.0000
        15         0.0000     -0.0001     -0.2230      0.0497      0.0114
        16         0.0001     -0.0004      0.0000      0.0000      0.0000
        17         0.0007      0.0002      0.1598      0.0255      0.0066
        18         0.1812      0.0001     -0.0002      0.0328      0.0087
        19        -0.0004      0.0000      0.2526      0.0638      0.0169
        20         0.0003     -0.0001     -0.0001      0.0000      0.0000
 Ground to excited state transition velocity dipole moments (Au):
       state          X           Y           Z        Dip. S.      Osc.
         1         0.1524      0.0000     -0.0001      0.0232      0.0894
         2        -0.0001      0.2007     -0.0001      0.0403      0.1205
         3         0.0000      0.0001      0.0022      0.0000      0.0000
         4         0.0000      0.0000      0.0000      0.0000      0.0000
         5        -0.0001      0.3595      0.0001      0.1293      0.3325
         6         0.0001      0.0005     -0.0395      0.0016      0.0036
         7         0.0000      0.0000     -0.0303      0.0009      0.0021
         8        -0.0005     -0.0001      0.0000      0.0000      0.0000
         9        -0.0823      0.0000     -0.0003      0.0068      0.0149
        10         0.0000      0.0001      0.0000      0.0000      0.0000
        11         0.0001     -0.0002      0.0000      0.0000      0.0000
        12         0.0001     -0.0001      0.0000      0.0000      0.0000
        13         0.0001     -0.0001      0.0574      0.0033      0.0068
        14        -0.0003      0.0000      0.0000      0.0000      0.0000
        15         0.0000      0.0001      0.0842      0.0071      0.0137
        16         0.0000      0.0001      0.0000      0.0000      0.0000
        17        -0.0003     -0.0001      0.0473      0.0022      0.0038
        18        -0.0974      0.0000      0.0001      0.0095      0.0160
        19         0.0001      0.0000     -0.0870      0.0076      0.0127
        20        -0.0002      0.0000      0.0000      0.0000      0.0000
 Ground to excited state transition magnetic dipole moments (Au):
       state          X           Y           Z
         1         0.0001      0.0001      0.7580
         2         0.0001      0.0004     -0.0001
         3        -0.1488      0.0000      0.0001
         4         0.0000      0.2027      0.0001
         5         0.0011      0.0006     -0.0001
         6        -0.9013     -0.0003     -0.0006
         7        -0.1605     -0.0001      0.0002
         8         0.0000      0.0389      0.0020
         9         0.0003      0.0026      0.3722
        10        -0.0002      0.5047     -0.0001
        11        -0.0006      1.5148     -0.0007
        12         0.0001     -0.5833     -0.0002
        13         1.7453      0.0006     -0.0002
        14         0.0001     -0.2743      0.0000
        15         0.2260      0.0001      0.0002
        16         0.0001     -0.3844     -0.0001
        17         0.0088     -0.0001      0.0000
        18         0.0000      0.0000      0.1579
        19         0.6025      0.0006     -0.0002
        20         0.0004     -0.0098      0.0004
 <0|del|b> * <b|rxdel|0> + <0|del|b> * <b|delr+rdel|0>
 Rotatory Strengths (R) in cgs (10**-40 erg-esu-cm/Gauss)
       state          XX          YY          ZZ    R(velocity)
         1        -0.2234     -0.0869      0.0112     -0.0997
 Total R(velocity) tensor for State=          1
                 1             2             3 
      1  -0.223380D+00 -0.648420D-01 -0.317281D+03
      2  -0.101844D-04 -0.869061D-01 -0.348824D-01
      3   0.780188D-05  0.530248D-03  0.112056D-01
 R(velocity) tensor in inp. orien. for State=          1
                 1             2             3 
      1  -0.223380D+00 -0.648426D-01 -0.317281D+03
      2  -0.107318D-04 -0.869064D-01 -0.361552D-01
      3   0.779975D-05  0.530248D-03  0.112056D-01
         2         0.1547      0.0000      0.0730      0.0759
 Total R(velocity) tensor for State=          2
                 1             2             3 
      1   0.154686D+00  0.218425D-01  0.828973D+02
      2  -0.350581D-02 -0.333820D-05 -0.903125D-02
      3  -0.524011D+01 -0.142050D-02  0.730177D-01
 R(velocity) tensor in inp. orien. for State=          2
                 1             2             3 
      1   0.154686D+00  0.218431D-01  0.828973D+02
      2  -0.350519D-02 -0.326465D-05 -0.869872D-02
      3  -0.524011D+01 -0.144152D-02  0.730177D-01
         3         0.0005     -0.0037     -0.0077     -0.0036
 Total R(velocity) tensor for State=          3
                 1             2             3 
      1   0.541255D-03 -0.425148D-03  0.162233D-04
      2   0.166333D-01 -0.368823D-02  0.292567D-05
      3   0.665325D+00 -0.152028D-04 -0.767989D-02
 R(velocity) tensor in inp. orien. for State=          3
                 1             2             3 
      1   0.541190D-03 -0.425131D-03  0.162233D-04
      2   0.166334D-01 -0.368817D-02  0.292573D-05
      3   0.665325D+00 -0.125339D-04 -0.767989D-02
         4        -0.0124      0.0000     -0.0159     -0.0094
 Total R(velocity) tensor for State=          4
                 1             2             3 
      1  -0.124311D-01  0.219677D-03  0.832018D-05
      2  -0.129040D-04 -0.125352D-05  0.348905D-05
      3   0.000000D+00  0.675890D-02 -0.158777D-01
 R(velocity) tensor in inp. orien. for State=          4
                 1             2             3 
      1  -0.124311D-01  0.219627D-03  0.832016D-05
      2  -0.129539D-04 -0.125269D-05  0.348908D-05
      3   0.000000D+00  0.675890D-02 -0.158777D-01
         5         0.4295     -0.0002      0.1451      0.1915
 Total R(velocity) tensor for State=          5
                 1             2             3 
      1   0.429487D+00 -0.250058D-01  0.110180D+03
      2  -0.610870D+00 -0.158491D-03  0.629792D-01
      3  -0.320649D+02 -0.759903D-02  0.145145D+00
 R(velocity) tensor in inp. orien. for State=          5
                 1             2             3 
      1   0.429490D+00 -0.250040D-01  0.110180D+03
      2  -0.610869D+00 -0.161041D-03  0.634212D-01
      3  -0.320649D+02 -0.772765D-02  0.145145D+00
         6         0.0408     -0.1217     -0.1335     -0.0715
 Total R(velocity) tensor for State=          6
                 1             2             3 
      1   0.407520D-01  0.201123D-01  0.395253D-03
      2   0.595715D+00 -0.121671D+00  0.249112D-03
      3  -0.425280D+02 -0.174329D-01 -0.133546D+00
 R(velocity) tensor in inp. orien. for State=          6
                 1             2             3 
      1   0.407495D-01  0.201130D-01  0.395252D-03
      2   0.595715D+00 -0.121668D+00  0.249113D-03
      3  -0.425280D+02 -0.176035D-01 -0.133546D+00
         7        -0.0201      0.0114      0.0093      0.0002
 Total R(velocity) tensor for State=          7
                 1             2             3 
      1  -0.201415D-01 -0.168224D-02  0.223822D-04
      2   0.367507D-02  0.114177D-01  0.974973D-05
      3  -0.765707D+01 -0.379812D-02  0.930045D-02
 R(velocity) tensor in inp. orien. for State=          7
                 1             2             3 
      1  -0.201415D-01 -0.168237D-02  0.223822D-04
      2   0.367495D-02  0.114178D-01  0.974982D-05
      3  -0.765707D+01 -0.382883D-02  0.930045D-02
         8        -0.0057      0.0000     -0.0018     -0.0025
 Total R(velocity) tensor for State=          8
                 1             2             3 
      1  -0.566698D-02  0.335199D-01  0.285845D-02
      2  -0.377502D-05  0.177231D-04  0.521556D-04
      3   0.110699D-05  0.159636D-03 -0.181362D-02
 R(velocity) tensor in inp. orien. for State=          8
                 1             2             3 
      1  -0.566711D-02  0.335199D-01  0.285844D-02
      2  -0.379782D-05  0.178575D-04  0.521670D-04
      3   0.110635D-05  0.159636D-03 -0.181362D-02
         9        -0.2783      0.0000     -0.0101     -0.0961
 Total R(velocity) tensor for State=          9
                 1             2             3 
      1  -0.278292D+00  0.228535D+00  0.893113D+02
      2  -0.698084D-04  0.418507D-04  0.224027D-01
      3   0.314527D-04 -0.944030D-03 -0.101369D-01
 R(velocity) tensor in inp. orien. for State=          9
                 1             2             3 
      1  -0.278292D+00  0.228534D+00  0.893113D+02
      2  -0.709249D-04  0.427671D-04  0.227610D-01
      3   0.314565D-04 -0.944030D-03 -0.101369D-01
        10         0.0511      0.0000      0.0689      0.0400
 Total R(velocity) tensor for State=         10
                 1             2             3 
      1   0.510997D-01 -0.174239D-01 -0.324072D-05
      2   0.175060D-04 -0.586564D-05 -0.151396D-04
      3  -0.101812D-05 -0.471096D-03  0.689176D-01
 R(velocity) tensor in inp. orien. for State=         10
                 1             2             3 
      1   0.510998D-01 -0.174237D-01 -0.324066D-05
      2   0.177110D-04 -0.593546D-05 -0.151396D-04
      3  -0.101624D-05 -0.471096D-03  0.689176D-01
        11        -0.4100     -0.0001     -0.3970     -0.2690
 Total R(velocity) tensor for State=         11
                 1             2             3 
      1  -0.409973D+00 -0.127148D+00  0.240148D-03
      2  -0.164179D-03 -0.540981D-04  0.115814D-03
      3  -0.144651D-04  0.109047D-01 -0.396992D+00
 R(velocity) tensor in inp. orien. for State=         11
                 1             2             3 
      1  -0.409972D+00 -0.127150D+00  0.240148D-03
      2  -0.165824D-03 -0.546088D-04  0.115815D-03
      3  -0.145089D-04  0.109047D-01 -0.396992D+00
        12         0.0695      0.0000      0.0953      0.0550
 Total R(velocity) tensor for State=         12
                 1             2             3 
      1   0.695206D-01  0.326291D-01 -0.318717D-04
      2   0.188815D-04  0.878889D-05 -0.140898D-05
      3   0.511590D-05  0.497507D-02  0.953241D-01
 R(velocity) tensor in inp. orien. for State=         12
                 1             2             3 
      1   0.695205D-01  0.326294D-01 -0.318717D-04
      2   0.191603D-04  0.891985D-05 -0.140910D-05
      3   0.509594D-05  0.497507D-02  0.953241D-01
        13        -0.0272      0.2040      0.2169      0.1312
 Total R(velocity) tensor for State=         13
                 1             2             3 
      1  -0.272325D-01  0.412676D-03  0.530209D-04
      2   0.108794D+00  0.203986D+00 -0.275712D-04
      3  -0.112215D+03 -0.374196D-01  0.216921D+00
 R(velocity) tensor in inp. orien. for State=         13
                 1             2             3 
      1  -0.272329D-01  0.411748D-03  0.530210D-04
      2   0.108793D+00  0.203986D+00 -0.275709D-04
      3  -0.112215D+03 -0.378697D-01  0.216921D+00
        14        -0.0096      0.0000     -0.0125     -0.0073
 Total R(velocity) tensor for State=         14
                 1             2             3 
      1  -0.956504D-02 -0.689321D-01  0.175573D-03
      2   0.218952D-05  0.198946D-04  0.607761D-05
      3   0.417480D-05 -0.835571D-02 -0.124660D-01
 R(velocity) tensor in inp. orien. for State=         14
                 1             2             3 
      1  -0.956476D-02 -0.689321D-01  0.175573D-03
      2   0.215108D-05  0.196181D-04  0.607832D-05
      3   0.420832D-05 -0.835571D-02 -0.124660D-01
        15         0.0064      0.0017     -0.0004      0.0026
 Total R(velocity) tensor for State=         15
                 1             2             3 
      1   0.644652D-02  0.301069D-01 -0.409109D-04
      2  -0.627904D-01  0.168435D-02 -0.352883D-04
      3  -0.705569D+00 -0.292075D-02 -0.364398D-03
 R(velocity) tensor in inp. orien. for State=         15
                 1             2             3 
      1   0.644665D-02  0.301069D-01 -0.409108D-04
      2  -0.627904D-01  0.168422D-02 -0.352884D-04
      3  -0.705569D+00 -0.292358D-02 -0.364398D-03
        16        -0.0285      0.0000     -0.0444     -0.0243
 Total R(velocity) tensor for State=         16
                 1             2             3 
      1  -0.284547D-01 -0.105730D-01  0.159171D-04
      2  -0.427903D-05  0.000000D+00  0.199210D-04
      3   0.622923D-05 -0.261992D-02 -0.443831D-01
 R(velocity) tensor in inp. orien. for State=         16
                 1             2             3 
      1  -0.284547D-01 -0.105731D-01  0.159170D-04
      2  -0.439317D-05  0.000000D+00  0.199210D-04
      3   0.623974D-05 -0.261992D-02 -0.443831D-01
        17         0.0035     -0.0636      0.0520     -0.0027
 Total R(velocity) tensor for State=         17
                 1             2             3 
      1   0.345579D-02  0.602243D-02  0.272171D-04
      2   0.167522D-01 -0.635581D-01  0.208160D-04
      3   0.897488D+01  0.654547D-02  0.519542D-01
 R(velocity) tensor in inp. orien. for State=         17
                 1             2             3 
      1   0.345570D-02  0.602269D-02  0.272170D-04
      2   0.167524D-01 -0.635580D-01  0.208161D-04
      3   0.897488D+01  0.658147D-02  0.519542D-01
        18         0.0045      0.0113      0.0064      0.0074
 Total R(velocity) tensor for State=         18
                 1             2             3 
      1   0.454377D-02  0.413616D-02  0.846722D+01
      2  -0.155622D-05  0.112735D-01  0.441382D-02
      3   0.329480D-05  0.465322D-03  0.643969D-02
 R(velocity) tensor in inp. orien. for State=         18
                 1             2             3 
      1   0.454375D-02  0.413613D-02  0.846722D+01
      2  -0.158321D-05  0.112736D-01  0.444779D-02
      3   0.329294D-05  0.465322D-03  0.643969D-02
        19         0.0190      0.0582      0.0436      0.0402
 Total R(velocity) tensor for State=         19
                 1             2             3 
      1   0.189579D-01 -0.371847D-02  0.188101D-04
      2  -0.219798D-01  0.582243D-01 -0.370483D-04
      3   0.465181D+02  0.407234D-01  0.435650D-01
 R(velocity) tensor in inp. orien. for State=         19
                 1             2             3 
      1   0.189580D-01 -0.371863D-02  0.188103D-04
      2  -0.219800D-01  0.582242D-01 -0.370482D-04
      3   0.465181D+02  0.409100D-01  0.435650D-01
        20         0.0004     -0.0001     -0.0008     -0.0001
 Total R(velocity) tensor for State=         20
                 1             2             3 
      1   0.446647D-03  0.440515D-02  0.910453D-04
      2  -0.917890D-05 -0.843819D-04 -0.190471D-04
      3  -0.118481D-05  0.265870D-03 -0.775788D-03
 R(velocity) tensor in inp. orien. for State=         20
                 1             2             3 
      1   0.446630D-03  0.440516D-02  0.910453D-04
      2  -0.917677D-05 -0.843642D-04 -0.190467D-04
      3  -0.118588D-05  0.265870D-03 -0.775788D-03
 1/2[<0|r|b>*<b|rxdel|0> + (<0|rxdel|b>*<b|r|0>)*]
 Rotatory Strengths (R) in cgs (10**-40 erg-esu-cm/Gauss)
       state          XX          YY          ZZ     R(length)     R(au)
         1         0.0482      0.0000     -0.4974     -0.1497     -0.0003
         2         0.0000      0.3201      0.0000      0.1067      0.0002
         3        -0.0265      0.0000      0.0052     -0.0071      0.0000
         4         0.0000     -0.0584      0.0000     -0.0195      0.0000
         5        -0.0004      0.8021      0.0000      0.2672      0.0006
         6        -0.2956     -0.0006      0.0095     -0.0956     -0.0002
         7         0.0073      0.0000     -0.0987     -0.0305     -0.0001
         8         0.0000     -0.0046     -0.0001     -0.0016      0.0000
         9        -0.0958     -0.0003     -0.1950     -0.0970     -0.0002
        10         0.0000      0.1043      0.0000      0.0348      0.0001
        11        -0.0002     -1.0136      0.0000     -0.3379     -0.0007
        12         0.0000      0.1685      0.0000      0.0562      0.0001
        13         0.5909      0.0000     -0.0244      0.1888      0.0004
        14         0.0000      0.0029      0.0000      0.0010      0.0000
        15        -0.0013      0.0000      0.0257      0.0081      0.0000
        16         0.0000     -0.0988      0.0000     -0.0330     -0.0001
        17        -0.0044      0.0000      0.0050      0.0002      0.0000
        18         0.0055      0.0000      0.0234      0.0096      0.0000
        19         0.1546      0.0000      0.0387      0.0644      0.0001
        20        -0.0001     -0.0008      0.0000     -0.0003      0.0000
  1/2[<0|del|b>*<b|r|0> + (<0|r|b>*<b|del|0>)*] (Au)
       state          X           Y           Z        Dip. S.   Osc.(frdel)
         1        -0.1958      0.0000      0.0000      0.1958      0.1305
         2         0.0000     -0.2540      0.0000      0.2540      0.1693
         3         0.0000      0.0000     -0.0002      0.0002      0.0001
         4         0.0000      0.0000      0.0000      0.0000      0.0000
         5         0.0000     -0.6961      0.0000      0.6961      0.4641
         6         0.0000      0.0000     -0.0009      0.0009      0.0006
         7         0.0000      0.0000     -0.0226      0.0226      0.0151
         8         0.0000      0.0000      0.0000      0.0000      0.0000
         9        -0.0328      0.0000      0.0000      0.0328      0.0219
        10         0.0000      0.0000      0.0000      0.0000      0.0000
        11         0.0000      0.0000      0.0000      0.0000      0.0000
        12         0.0000      0.0000      0.0000      0.0000      0.0000
        13         0.0000      0.0000     -0.0089      0.0089      0.0060
        14         0.0000      0.0000      0.0000      0.0000      0.0000
        15         0.0000      0.0000     -0.0188      0.0188      0.0125
        16         0.0000      0.0000      0.0000      0.0000      0.0000
        17         0.0000      0.0000      0.0076     -0.0076     -0.0050
        18        -0.0176      0.0000      0.0000      0.0176      0.0118
        19         0.0000      0.0000     -0.0220      0.0220      0.0146
        20         0.0000      0.0000      0.0000      0.0000      0.0000
 Ground to excited state transition densities written to RWF  633

 Excitation energies and oscillator strengths:
 
 Excited State   1:      Singlet-A      4.7117 eV  263.14 nm  f=0.1906  <S**2>=0.000
      13 -> 14         0.69555
 This state for optimization and/or second-order correction.
 Copying the excited state density for this state as the 1-particle RhoCI density.
 
 Excited State   2:      Singlet-A      6.0685 eV  204.31 nm  f=0.2380  <S**2>=0.000
      12 -> 14        -0.11374
      13 -> 15         0.69018
 
 Excited State   3:      Singlet-A      6.4010 eV  193.70 nm  f=0.0010  <S**2>=0.000
      13 -> 16         0.69704
 
 Excited State   4:      Singlet-A      6.5272 eV  189.95 nm  f=0.0000  <S**2>=0.000
      12 -> 16         0.10245
      13 -> 17         0.69180
 
 Excited State   5:      Singlet-A      7.0517 eV  175.82 nm  f=0.6476  <S**2>=0.000
      12 -> 14         0.68843
 
 Excited State   6:      Singlet-A      7.9880 eV  155.21 nm  f=0.0001  <S**2>=0.000
       9 -> 15        -0.13841
      11 -> 14         0.67165
      13 -> 19        -0.13635
 
 Excited State   7:      Singlet-A      8.0791 eV  153.46 nm  f=0.1104  <S**2>=0.000
      11 -> 14         0.13792
      12 -> 17         0.21166
      12 -> 18        -0.10421
      13 -> 19         0.64222
 
 Excited State   8:      Singlet-A      8.1987 eV  151.22 nm  f=0.0000  <S**2>=0.000
      12 -> 16        -0.32613
      13 -> 18         0.31805
      13 -> 20         0.51562
 
 Excited State   9:      Singlet-A      8.2341 eV  150.57 nm  f=0.0320  <S**2>=0.000
      12 -> 15         0.68865
 
 Excited State  10:      Singlet-A      8.3917 eV  147.75 nm  f=0.0000  <S**2>=0.000
      12 -> 19        -0.16186
      13 -> 18         0.57483
      13 -> 20        -0.33645
 
 Excited State  11:      Singlet-A      8.6325 eV  143.62 nm  f=0.0000  <S**2>=0.000
       9 -> 14         0.24977
      10 -> 14         0.48236
      11 -> 15        -0.42433
      13 -> 18        -0.12303
 
 Excited State  12:      Singlet-A      8.7764 eV  141.27 nm  f=0.0000  <S**2>=0.000
       8 -> 15         0.26106
       9 -> 14         0.54107
      10 -> 14        -0.33627
 
 Excited State  13:      Singlet-A      8.8458 eV  140.16 nm  f=0.0052  <S**2>=0.000
       8 -> 14         0.62225
       9 -> 15         0.27693
      10 -> 15        -0.15927
 
 Excited State  14:      Singlet-A      9.1136 eV  136.04 nm  f=0.0000  <S**2>=0.000
      12 -> 16         0.60350
      13 -> 18         0.12739
      13 -> 20         0.31009
 
 Excited State  15:      Singlet-A      9.3878 eV  132.07 nm  f=0.0114  <S**2>=0.000
      12 -> 17         0.65724
      12 -> 20        -0.10644
      13 -> 19        -0.20165
 
 Excited State  16:      Singlet-A      9.7652 eV  126.97 nm  f=0.0000  <S**2>=0.000
       8 -> 15         0.24297
       9 -> 14         0.19884
      10 -> 14         0.36727
      11 -> 15         0.50105
 
 Excited State  17:      Singlet-A     10.6210 eV  116.74 nm  f=0.0066  <S**2>=0.000
       9 -> 15        -0.12693
      12 -> 18         0.17146
      12 -> 20         0.57340
      13 -> 23        -0.29654
 
 Excited State  18:      Singlet-A     10.7645 eV  115.18 nm  f=0.0087  <S**2>=0.000
      13 -> 21         0.70597
 
 Excited State  19:      Singlet-A     10.8248 eV  114.54 nm  f=0.0169  <S**2>=0.000
       8 -> 14        -0.31542
       9 -> 15         0.46687
      10 -> 15        -0.38002
      12 -> 20         0.13813
 
 Excited State  20:      Singlet-A     11.0266 eV  112.44 nm  f=0.0000  <S**2>=0.000
      12 -> 19         0.64895
      13 -> 18         0.15020
      13 -> 22         0.18647
 SavETr:  write IOETrn=   770 NScale= 10 NData=  16 NLR=1 LETran=     350.

 **********************************************************************

            Population analysis using the SCF density.

 **********************************************************************

 Orbital symmetries:
       Occupied  (A) (A) (A) (A) (A) (A) (A) (A) (A) (A) (A) (A)
                 (A)
       Virtual   (A) (A) (A) (A) (A) (A) (A) (A) (A) (A) (A) (A)
                 (A)
 The electronic state is 1-A.
 Alpha  occ. eigenvalues --   -1.64084  -1.14602  -1.13713  -0.84800  -0.83349
 Alpha  occ. eigenvalues --   -0.80731  -0.64622  -0.52951  -0.52501  -0.51451
 Alpha  occ. eigenvalues --   -0.47633  -0.40414  -0.31403
 Alpha virt. eigenvalues --    0.02666   0.08154   0.12077   0.12114   0.18770
 Alpha virt. eigenvalues --    0.19276   0.19937   0.25929   0.31976   0.33478
 Alpha virt. eigenvalues --    0.37666   0.41583   0.42954
          Condensed to atoms (all electrons):
              1          2          3          4          5          6
     1  C    4.063816   0.000000   0.000000   0.000000   0.000000   0.000000
     2  C    0.000000   4.063822   0.000000   0.000000   0.000000   0.000000
     3  C    0.000000   0.000000   4.057905   0.000000   0.000000   0.000000
     4  C    0.000000   0.000000   0.000000   4.011662   0.000000   0.000000
     5  C    0.000000   0.000000   0.000000   0.000000   4.057900   0.000000
     6  H    0.000000   0.000000   0.000000   0.000000   0.000000   0.962285
     7  H    0.000000   0.000000   0.000000   0.000000   0.000000   0.000000
     8  H    0.000000   0.000000   0.000000   0.000000   0.000000   0.000000
     9  H    0.000000   0.000000   0.000000   0.000000   0.000000   0.000000
    10  H    0.000000   0.000000   0.000000   0.000000   0.000000   0.000000
    11  H    0.000000   0.000000   0.000000   0.000000   0.000000   0.000000
              7          8          9         10         11
     1  C    0.000000   0.000000   0.000000   0.000000   0.000000
     2  C    0.000000   0.000000   0.000000   0.000000   0.000000
     3  C    0.000000   0.000000   0.000000   0.000000   0.000000
     4  C    0.000000   0.000000   0.000000   0.000000   0.000000
     5  C    0.000000   0.000000   0.000000   0.000000   0.000000
     6  H    0.000000   0.000000   0.000000   0.000000   0.000000
     7  H    0.962276   0.000000   0.000000   0.000000   0.000000
     8  H    0.000000   0.955641   0.000000   0.000000   0.000000
     9  H    0.000000   0.000000   0.954541   0.000000   0.000000
    10  H    0.000000   0.000000   0.000000   0.954507   0.000000
    11  H    0.000000   0.000000   0.000000   0.000000   0.955645
 Mulliken atomic charges:
              1
     1  C   -0.063816
     2  C   -0.063822
     3  C   -0.057905
     4  C   -0.011662
     5  C   -0.057900
     6  H    0.037715
     7  H    0.037724
     8  H    0.044359
     9  H    0.045459
    10  H    0.045493
    11  H    0.044355
 Sum of Mulliken atomic charges =   0.00000
 Mulliken charges with hydrogens summed into heavy atoms:
              1
     1  C   -0.026101
     2  C   -0.026098
     3  C   -0.013546
     4  C    0.079290
     5  C   -0.013545
 Sum of Mulliken charges with hydrogens summed into heavy atoms =   0.00000
 Charge=              0.0000 electrons
 Dipole moment (field-independent basis, Debye):
    X=             -0.0002    Y=              0.8445    Z=              0.0004  Tot=              0.8445
 N-N= 5.312800664230D+01 E-N= 0.000000000000D+00  KE=-1.515389258630D+02
 1|1|UNPC-DESKTOP-K2VF0AK|SP|RZINDO|STO-3G|C5H6|MELIH|10-Dec-2024|0||# 
 rzindo=(nstates=20) scrf=(cpcm,solvent=water) geom=connectivity||Title
  Card Required||0,1|C,0,-0.742108,-0.983385,-0.000052|C,0,0.742608,-0.
 983043,0.000125|C,0,1.181495,0.271826,-0.000132|C,0,-0.000314,1.226605
 ,-0.000056|C,0,-1.181622,0.271225,0.000023|H,0,-1.341832,-1.868349,0.0
 00297|H,0,1.342745,-1.867727,-0.000547|H,0,2.199961,0.595866,0.000374|
 H,0,-0.000436,1.862619,0.880947|H,0,-0.000522,1.863506,-0.880273|H,0,-
 2.200264,0.59472,-0.000247||Version=IA32W-G09RevA.02|State=1-A|HF=-32.
 43641|RMSD=7.349e-010|PG=C01 [X(C5H6)]||@


 IT'S WHAT YOU LEARN AFTER YOU KNOW IT ALL
 THAT COUNTS.
 Job cpu time:  0 days  0 hours  0 minutes  5.0 seconds.
 File lengths (MBytes):  RWF=     39 Int=      0 D2E=      0 Chk=      2 Scr=      1
 Normal termination of Gaussian 09 at Tue Dec 10 11:22:31 2024.
