 Entering Link 1 = C:\G09W\l1.exe PID=      9888.
  
 Copyright (c) 1988,1990,1992,1993,1995,1998,2003,2009, Gaussian, Inc.
                  All Rights Reserved.
  
 This is part of the Gaussian(R) 09 program.  It is based on
 the Gaussian(R) 03 system (copyright 2003, Gaussian, Inc.),
 the Gaussian(R) 98 system (copyright 1998, Gaussian, Inc.),
 the Gaussian(R) 94 system (copyright 1995, Gaussian, Inc.),
 the Gaussian 92(TM) system (copyright 1992, Gaussian, Inc.),
 the Gaussian 90(TM) system (copyright 1990, Gaussian, Inc.),
 the Gaussian 88(TM) system (copyright 1988, Gaussian, Inc.),
 the Gaussian 86(TM) system (copyright 1986, Carnegie Mellon
 University), and the Gaussian 82(TM) system (copyright 1983,
 Carnegie Mellon University). Gaussian is a federally registered
 trademark of Gaussian, Inc.
  
 This software contains proprietary and confidential information,
 including trade secrets, belonging to Gaussian, Inc.
  
 This software is provided under written license and may be
 used, copied, transmitted, or stored only in accord with that
 written license.
  
 The following legend is applicable only to US Government
 contracts under FAR:
  
                    RESTRICTED RIGHTS LEGEND
  
 Use, reproduction and disclosure by the US Government is
 subject to restrictions as set forth in subparagraphs (a)
 and (c) of the Commercial Computer Software - Restricted
 Rights clause in FAR 52.227-19.
  
 Gaussian, Inc.
 340 Quinnipiac St., Bldg. 40, Wallingford CT 06492
  
  
 ---------------------------------------------------------------
 Warning -- This program may not be used in any manner that
 competes with the business of Gaussian, Inc. or will provide
 assistance to any competitor of Gaussian, Inc.  The licensee
 of this program is prohibited from giving any competitor of
 Gaussian, Inc. access to this program.  By using this program,
 the user acknowledges that Gaussian, Inc. is engaged in the
 business of creating and licensing software in the field of
 computational chemistry and represents and warrants to the
 licensee that it is not a competitor of Gaussian, Inc. and that
 it will not use this program in any manner prohibited above.
 ---------------------------------------------------------------
  

 Cite this work as:
 Gaussian 09, Revision A.02,
 M. J. Frisch, G. W. Trucks, H. B. Schlegel, G. E. Scuseria, 
 M. A. Robb, J. R. Cheeseman, G. Scalmani, V. Barone, B. Mennucci, 
 G. A. Petersson, H. Nakatsuji, M. Caricato, X. Li, H. P. Hratchian, 
 A. F. Izmaylov, J. Bloino, G. Zheng, J. L. Sonnenberg, M. Hada, 
 M. Ehara, K. Toyota, R. Fukuda, J. Hasegawa, M. Ishida, T. Nakajima, 
 Y. Honda, O. Kitao, H. Nakai, T. Vreven, J. A. Montgomery, Jr., 
 J. E. Peralta, F. Ogliaro, M. Bearpark, J. J. Heyd, E. Brothers, 
 K. N. Kudin, V. N. Staroverov, R. Kobayashi, J. Normand, 
 K. Raghavachari, A. Rendell, J. C. Burant, S. S. Iyengar, J. Tomasi, 
 M. Cossi, N. Rega, J. M. Millam, M. Klene, J. E. Knox, J. B. Cross, 
 V. Bakken, C. Adamo, J. Jaramillo, R. Gomperts, R. E. Stratmann, 
 O. Yazyev, A. J. Austin, R. Cammi, C. Pomelli, J. W. Ochterski, 
 R. L. Martin, K. Morokuma, V. G. Zakrzewski, G. A. Voth, 
 P. Salvador, J. J. Dannenberg, S. Dapprich, A. D. Daniels, 
 O. Farkas, J. B. Foresman, J. V. Ortiz, J. Cioslowski, 
 and D. J. Fox, Gaussian, Inc., Wallingford CT, 2009.
 
 ******************************************
 Gaussian 09:  IA32W-G09RevA.02 11-Jun-2009
                10-Dec-2024 
 ******************************************
 %chk=C:\G09W\ethoxide\cycloctadienewater.chk
 ------------------------------------------------------------
 # rzindo=(nstates=20) scrf=(solvent=water) geom=connectivity
 ------------------------------------------------------------
 1/38=1,57=2/1;
 2/12=2,17=6,18=5,40=1/2;
 3/5=2,16=1,25=1,41=400000,70=2201,72=1,116=1/1,2,8,3;
 4/5=3,35=1/1;
 5/5=2,35=1,38=5,53=1/2;
 8/6=1,108=20/1;
 9/41=20,42=1,49=10/14;
 6/7=2,8=2,9=2,10=2/1;
 99/5=1,9=1/99;
 -------------------
 Title Card Required
 -------------------
 Symbolic Z-matrix:
 Charge =  0 Multiplicity = 1
 C                     1.86464  -0.87162  -0.01611 
 C                     0.55277  -1.4392    0.38153 
 C                    -0.62311   1.43622  -0.38602 
 C                    -0.4428   -1.26171  -0.46265 
 C                    -1.74537   0.60968   0.33215 
 C                    -1.84322  -0.91049  -0.06631 
 H                     0.38533  -1.70315   1.41223 
 H                    -0.19087  -1.01315  -1.47676 
 H                    -0.55129   1.17369  -1.43291 
 H                    -2.69998   1.0888    0.14113 
 H                     2.72988  -1.48203  -0.19637 
 H                    -0.95361   2.47044  -0.35253 
 H                    -1.56399   0.66616   1.39973 
 H                    -2.53611  -1.03816  -0.88854 
 H                    -2.20114  -1.48559   0.77898 
 C                     1.91134   0.44683  -0.1359 
 H                     2.8327    0.91074  -0.44298 
 C                     0.80461   1.43288   0.28232 
 H                     0.66151   1.33129   1.35452 
 H                     1.21443   2.42545   0.12943 
 
                          Input orientation:                          
 ---------------------------------------------------------------------
 Center     Atomic      Atomic             Coordinates (Angstroms)
 Number     Number       Type             X           Y           Z
 ---------------------------------------------------------------------
      1          6           0        1.864635   -0.871621   -0.016114
      2          6           0        0.552765   -1.439198    0.381533
      3          6           0       -0.623108    1.436220   -0.386024
      4          6           0       -0.442799   -1.261713   -0.462649
      5          6           0       -1.745367    0.609676    0.332150
      6          6           0       -1.843217   -0.910486   -0.066307
      7          1           0        0.385331   -1.703147    1.412227
      8          1           0       -0.190870   -1.013151   -1.476761
      9          1           0       -0.551292    1.173689   -1.432914
     10          1           0       -2.699977    1.088800    0.141131
     11          1           0        2.729877   -1.482029   -0.196370
     12          1           0       -0.953612    2.470436   -0.352534
     13          1           0       -1.563994    0.666157    1.399726
     14          1           0       -2.536108   -1.038163   -0.888541
     15          1           0       -2.201135   -1.485587    0.778979
     16          6           0        1.911338    0.446827   -0.135898
     17          1           0        2.832701    0.910743   -0.442979
     18          6           0        0.804610    1.432880    0.282323
     19          1           0        0.661505    1.331286    1.354523
     20          1           0        1.214431    2.425452    0.129430
 ---------------------------------------------------------------------
                    Distance matrix (angstroms):
                    1          2          3          4          5
     1  C    0.000000
     2  C    1.483668   0.000000
     3  C    3.413478   3.199977   0.000000
     4  C    2.382397   1.317305   2.705037   0.000000
     5  C    3.917607   3.079242   1.567933   2.414640   0.000000
     6  C    3.708395   2.494159   2.664191   1.497203   1.574559
     7  H    2.218092   1.077048   3.755833   2.096622   3.324995
     8  H    2.525593   2.046403   2.715871   1.074092   2.884820
     9  H    3.468042   3.367245   1.081693   2.623808   2.204399
    10  H    4.970278   4.126608   2.170709   3.314259   1.085048
    11  H    1.074120   2.252914   4.449118   3.191444   4.968136
    12  H    4.384637   4.253618   1.086258   3.768553   2.134970
    13  H    4.015577   3.154347   2.160363   2.905547   1.084345
    14  H    4.489477   3.363786   3.167754   2.147860   2.197892
    15  H    4.188032   2.782819   3.519142   2.164141   2.190321
    16  C    1.324702   2.381291   2.732193   2.927087   3.690133
    17  H    2.072725   3.376411   3.495996   3.930503   4.652975
    18  C    2.554103   2.884805   1.576413   3.061347   2.680024
    19  H    2.859889   2.938387   2.165813   3.353393   2.712748
    20  H    3.363724   3.928979   2.149610   4.085603   3.478296
                    6          7          8          9         10
     6  C    0.000000
     7  H    2.789409   0.000000
     8  H    2.174896   3.025616   0.000000
     9  H    2.807218   4.153104   2.216776   0.000000
    10  H    2.184997   4.350837   3.651218   2.664896   0.000000
    11  H    4.610506   2.851907   3.223354   4.398630   6.017174
    12  H    3.507700   4.725034   3.739123   1.735118   2.280880
    13  H    2.170949   3.068163   3.602738   3.050738   1.747325
    14  H    1.082806   3.777637   2.418009   3.021279   2.368765
    15  H    1.083215   2.671730   3.058222   3.832258   2.698733
    16  C    3.992972   3.057413   2.889417   2.876652   4.664022
    17  H    5.032193   4.032844   3.729887   3.535608   5.566275
    18  C    3.553012   3.359634   3.173078   2.201747   3.524267
    19  H    3.649374   3.047521   3.773473   3.043931   3.581994
    20  H    4.529460   4.402080   4.047062   2.669383   4.136347
                   11         12         13         14         15
    11  H    0.000000
    12  H    5.405040   0.000000
    13  H    5.059600   2.588128   0.000000
    14  H    5.329795   3.886112   3.014279   0.000000
    15  H    5.026549   4.299622   2.328364   1.758698   0.000000
    16  C    2.096222   3.514237   3.805809   4.748836   4.635047
    17  H    2.407643   4.095972   4.773501   5.728950   5.707459
    18  C    3.525974   2.137969   2.728871   4.317102   4.218841
    19  H    3.820756   2.611572   2.323206   4.568408   4.057183
    20  H    4.203704   2.221424   3.525396   5.205712   5.232994
                   16         17         18         19         20
    16  C    0.000000
    17  H    1.076302   0.000000
    18  C    1.540148   2.216268   0.000000
    19  H    2.136751   2.849906   1.086468   0.000000
    20  H    2.114482   2.289278   1.084679   1.733141   0.000000
 Stoichiometry    C8H12
 Framework group  C1[X(C8H12)]
 Deg. of freedom    54
 Full point group                 C1      NOp   1
 Largest Abelian subgroup         C1      NOp   1
 Largest concise Abelian subgroup C1      NOp   1
                         Standard orientation:                         
 ---------------------------------------------------------------------
 Center     Atomic      Atomic             Coordinates (Angstroms)
 Number     Number       Type             X           Y           Z
 ---------------------------------------------------------------------
      1          6           0        1.864635   -0.871621   -0.016114
      2          6           0        0.552765   -1.439198    0.381533
      3          6           0       -0.623108    1.436220   -0.386024
      4          6           0       -0.442799   -1.261713   -0.462649
      5          6           0       -1.745367    0.609676    0.332150
      6          6           0       -1.843217   -0.910486   -0.066307
      7          1           0        0.385331   -1.703147    1.412227
      8          1           0       -0.190870   -1.013151   -1.476761
      9          1           0       -0.551292    1.173689   -1.432914
     10          1           0       -2.699977    1.088800    0.141131
     11          1           0        2.729877   -1.482029   -0.196370
     12          1           0       -0.953612    2.470436   -0.352534
     13          1           0       -1.563994    0.666157    1.399726
     14          1           0       -2.536108   -1.038163   -0.888541
     15          1           0       -2.201135   -1.485587    0.778979
     16          6           0        1.911338    0.446827   -0.135898
     17          1           0        2.832701    0.910743   -0.442979
     18          6           0        0.804610    1.432880    0.282323
     19          1           0        0.661505    1.331286    1.354523
     20          1           0        1.214431    2.425452    0.129430
 ---------------------------------------------------------------------
 Rotational constants (GHZ):      3.0273383      2.0888589      1.3742176
 Standard basis: VSTO-6G (5D, 7F)
 There are    44 symmetry adapted basis functions of A   symmetry.
 Integral buffers will be    262144 words long.
 Regular integral format.
 Two-electron integral symmetry is turned off.
    44 basis functions,   264 primitive gaussians,    44 cartesian basis functions
    22 alpha electrons       22 beta electrons
       nuclear repulsion energy       197.5046623647 Hartrees.
 ------------------------------------------------------------------------------
 Polarizable Continuum Model (PCM)
 =================================
 Model                : PCM.
 Atomic radii         : UFF (Universal Force Field).
 Polarization charges : Total charges.
 Charge compensation  : None.
 Solution method      : Matrix inversion.
 Cavity type          : Scaled VdW (van der Waals Surface) (Alpha=1.100).
 Cavity algorithm     : GePol (No added spheres)
                        Default sphere list used, NSphG=   20.
                        Lebedev-Laikov grids with approx.  5.0 points / Ang**2.
                        Smoothing algorithm: Karplus/York (Gamma=1.0000).
                        Polarization charges: spherical gaussians, with
                                              point-specific exponents (IZeta= 3).
                        Self-potential: point-specific (ISelfS= 7).
                        Self-field    : sphere-specific E.n sum rule (ISelfD= 2).
 Solvent              : Water, Eps=  78.355300 Eps(inf)=   1.777849
 ------------------------------------------------------------------------------
 Spheres list:
 ISph  on   Nord    Re0     Alpha      Xe            Ye            Ze
    1   C      1    1.926   1.100      1.864635     -0.871621     -0.016114
    2   C      2    1.926   1.100      0.552765     -1.439198      0.381533
    3   C      3    1.926   1.100     -0.623108      1.436220     -0.386024
    4   C      4    1.926   1.100     -0.442799     -1.261713     -0.462649
    5   C      5    1.926   1.100     -1.745367      0.609676      0.332150
    6   C      6    1.926   1.100     -1.843217     -0.910486     -0.066307
    7   H      7    1.443   1.100      0.385331     -1.703147      1.412227
    8   H      8    1.443   1.100     -0.190870     -1.013151     -1.476761
    9   H      9    1.443   1.100     -0.551292      1.173689     -1.432914
   10   H     10    1.443   1.100     -2.699977      1.088800      0.141131
   11   H     11    1.443   1.100      2.729877     -1.482029     -0.196370
   12   H     12    1.443   1.100     -0.953612      2.470436     -0.352534
   13   H     13    1.443   1.100     -1.563994      0.666157      1.399726
   14   H     14    1.443   1.100     -2.536108     -1.038163     -0.888541
   15   H     15    1.443   1.100     -2.201135     -1.485587      0.778979
   16   C     16    1.926   1.100      1.911338      0.446827     -0.135898
   17   H     17    1.443   1.100      2.832701      0.910743     -0.442979
   18   C     18    1.926   1.100      0.804610      1.432880      0.282323
   19   H     19    1.443   1.100      0.661505      1.331286      1.354523
   20   H     20    1.443   1.100      1.214431      2.425452      0.129430
 ------------------------------------------------------------------------------
 Do NDO integrals.
 One-electron integrals computed using PRISM.
 Generate ZINDO/S integrals.
 NDO Nuclear repulsion=   140.253462730118 Hartrees.
 NBasis=    44 RedAO= F  NBF=    44
 NBsUse=    44 1.00D-04 NBFU=    44
 DipDrv:  will hold  3 matrices at once.
 Simple Huckel Guess.
 Initial guess orbital symmetries:
       Occupied  (A) (A) (A) (A) (A) (A) (A) (A) (A) (A) (A) (A)
                 (A) (A) (A) (A) (A) (A) (A) (A) (A) (A)
       Virtual   (A) (A) (A) (A) (A) (A) (A) (A) (A) (A) (A) (A)
                 (A) (A) (A) (A) (A) (A) (A) (A) (A) (A)
 The electronic state of the initial guess is 1-A.
 Requested convergence on RMS density matrix=1.00D-08 within 128 cycles.
 Requested convergence on MAX density matrix=1.00D-06.
 Requested convergence on             energy=1.00D-06.
 No special actions if energy rises.
 Overlap will be assumed to be unity.
 Error on total polarization charges =  0.00003
 SCF Done:  E(RZINDO/S) =  -54.0060715714     A.U. after   13 cycles
             Convg  =    0.3025D-08             -V/T =  0.8479
 Range of M.O.s used for correlation:     1    44
 NBasis=    44 NAE=    22 NBE=    22 NFC=     0 NFV=     0
 NROrb=     44 NOA=    22 NOB=    22 NVA=    22 NVB=    22
 NEqPCM:  Using non-equilibrium solvation (IEInf=1, Eps=  78.3553, EpsInf=   1.7778)
 Orbital symmetries:
       Occupied  (A) (A) (A) (A) (A) (A) (A) (A) (A) (A) (A) (A)
                 (A) (A) (A) (A) (A) (A) (A) (A) (A) (A)
       Virtual   (A) (A) (A) (A) (A) (A) (A) (A) (A) (A) (A) (A)
                 (A) (A) (A) (A) (A) (A) (A) (A) (A) (A)
    80 initial guesses have been made.
 Convergence on wavefunction:    0.001000000000000
 Iteration     1 Dimension    80 NMult    80
 CISAX will form    80 AO SS matrices at one time.
 New state      4 was old state      6
 New state      5 was old state      8
 New state      6 was old state      7
 New state      7 was old state     12
 New state      8 was old state      5
 New state      9 was old state     11
 New state     10 was old state      9
 New state     11 was old state     15
 New state     12 was old state     24
 New state     14 was old state     10
 New state     15 was old state     14
 New state     17 was old state     23
 New state     20 was old state     17
 Iteration     2 Dimension   160 NMult   160
 Iteration     3 Dimension   180 NMult   180
 Iteration     4 Dimension   198 NMult   198
 ***********************************************************************
 Excited states from <AA,BB:AA,BB> singles matrix:
 ***********************************************************************
 
 Ground to excited state transition electric dipole moments (Au):
       state          X           Y           Z        Dip. S.      Osc.
         1         1.0600     -0.1144      0.6600      1.5724      0.1847
         2         0.6292     -0.1405      0.4700      0.6366      0.0840
         3        -0.6698     -1.2121     -0.0750      1.9235      0.2661
         4        -0.1785      0.9780     -0.1004      0.9985      0.1514
         5        -0.5293      0.8006     -0.3828      1.0677      0.1690
         6        -0.2751      0.2735     -0.0399      0.1520      0.0256
         7         0.0434     -0.0227      0.0685      0.0071      0.0012
         8         0.0130     -0.2248      0.0743      0.0562      0.0102
         9         0.4877     -0.1005      0.2358      0.3035      0.0563
        10         0.0187     -0.0229      0.3387      0.1156      0.0218
        11         0.3302     -0.1319      0.0240      0.1270      0.0251
        12         0.0205      0.5956      0.1201      0.3696      0.0743
        13         0.2945     -0.1385      0.0305      0.1068      0.0218
        14        -0.2554      0.0428     -0.0466      0.0692      0.0146
        15        -0.2351      0.1027      0.1415      0.0859      0.0182
        16         0.0407     -0.2101     -0.0172      0.0461      0.0100
        17         0.3037     -0.0636      0.4153      0.2688      0.0590
        18        -0.1667      0.0608     -0.1240      0.0469      0.0104
        19         0.0753     -0.0203      0.0166      0.0064      0.0015
        20        -0.4038      0.1240      0.1096      0.1905      0.0444
 Ground to excited state transition velocity dipole moments (Au):
       state          X           Y           Z        Dip. S.      Osc.
         1        -0.1216      0.0271     -0.0899      0.0236      0.0893
         2        -0.0649     -0.0059     -0.0555      0.0073      0.0247
         3         0.0941      0.1929      0.0198      0.0465      0.1493
         4        -0.0230     -0.1467      0.0161      0.0223      0.0654
         5         0.1310     -0.1395      0.0611      0.0403      0.1133
         6         0.0665     -0.0262      0.0273      0.0059      0.0154
         7        -0.0132      0.1022     -0.0116      0.0107      0.0272
         8         0.0159      0.0245     -0.0351      0.0021      0.0051
         9        -0.1093      0.0091     -0.0195      0.0124      0.0297
        10         0.0425     -0.0032      0.0409      0.0035      0.0082
        11        -0.1034      0.0064      0.0050      0.0108      0.0242
        12         0.0037     -0.1024     -0.0164      0.0108      0.0238
        13        -0.0688      0.0244     -0.0191      0.0057      0.0124
        14         0.0820     -0.0194      0.0444      0.0091      0.0191
        15         0.1081     -0.0334     -0.0031      0.0128      0.0268
        16        -0.0096      0.0336      0.0193      0.0016      0.0033
        17        -0.0916      0.0368     -0.0700      0.0146      0.0296
        18         0.0505     -0.0347      0.0257      0.0044      0.0088
        19        -0.0231      0.0022      0.0010      0.0005      0.0010
        20         0.1223     -0.0341     -0.0315      0.0171      0.0326
 Ground to excited state transition magnetic dipole moments (Au):
       state          X           Y           Z
         1         0.4250     -0.0082     -0.2273
         2        -0.0601     -0.0562     -0.0856
         3        -0.2530     -0.0053      1.1863
         4        -0.1154     -0.0569     -0.5904
         5        -0.3192     -0.0094     -0.3314
         6        -0.1961      0.0206      0.0268
         7         0.0354     -0.1278      0.3071
         8         0.1373      0.0049      0.6162
         9        -0.1075     -0.6064     -0.7324
        10         0.1170      0.1348     -0.0900
        11        -0.9173      0.7366     -0.5761
        12         0.0570     -0.1788     -0.1105
        13         0.0875     -0.0472      0.3738
        14        -0.2194     -0.1577      0.6548
        15        -0.6606     -0.2838      0.8456
        16         0.9774      0.1162     -0.1775
        17         0.0366     -0.0710     -0.2353
        18        -0.0285     -0.0756      0.0802
        19        -0.2655      0.0576      0.0547
        20        -0.0751     -0.0272      0.3432
 <0|del|b> * <b|rxdel|0> + <0|del|b> * <b|delr+rdel|0>
 Rotatory Strengths (R) in cgs (10**-40 erg-esu-cm/Gauss)
       state          XX          YY          ZZ    R(velocity)
         1        29.4365    -85.0923    -70.7034    -42.1197
 Total R(velocity) tensor for State=          1
                 1             2             3 
      1   0.294365D+02 -0.300713D+01 -0.407393D+02
      2  -0.740000D+01 -0.850923D+02 -0.156472D+02
      3   0.468132D+02 -0.243972D+02 -0.707034D+02
 R(velocity) tensor in inp. orien. for State=          1
                 1             2             3 
      1   0.294365D+02 -0.300714D+01 -0.407393D+02
      2  -0.740000D+01 -0.850923D+02 -0.156472D+02
      3   0.468132D+02 -0.243972D+02 -0.707034D+02
         2        12.6635    -12.7190     32.1302     10.6916
 Total R(velocity) tensor for State=          2
                 1             2             3 
      1   0.126635D+02 -0.685782D+00 -0.147341D+02
      2   0.708019D+01 -0.127190D+02 -0.691915D+01
      3  -0.273597D+02 -0.129808D+01  0.321302D+02
 R(velocity) tensor in inp. orien. for State=          2
                 1             2             3 
      1   0.126635D+02 -0.685784D+00 -0.147341D+02
      2   0.708019D+01 -0.127190D+02 -0.691914D+01
      3  -0.273597D+02 -0.129807D+01  0.321302D+02
         3        72.4270    -29.7757    -47.0746     -1.4744
 Total R(velocity) tensor for State=          3
                 1             2             3 
      1   0.724270D+02 -0.129574D+02 -0.217625D+03
      2   0.113752D+03 -0.297757D+02 -0.250211D+03
      3   0.144099D+02 -0.218931D+01 -0.470746D+02
 R(velocity) tensor in inp. orien. for State=          3
                 1             2             3 
      1   0.724270D+02 -0.129574D+02 -0.217625D+03
      2   0.113752D+03 -0.297757D+02 -0.250211D+03
      3   0.144099D+02 -0.218932D+01 -0.470746D+02
         4         4.1949      1.8229     -1.3828      1.5450
 Total R(velocity) tensor for State=          4
                 1             2             3 
      1   0.419489D+01 -0.389602D+01 -0.294583D+02
      2  -0.428866D+02  0.182288D+01 -0.446630D+02
      3   0.933795D+00 -0.298548D+00 -0.138283D+01
 R(velocity) tensor in inp. orien. for State=          4
                 1             2             3 
      1   0.419488D+01 -0.389602D+01 -0.294583D+02
      2  -0.428866D+02  0.182288D+01 -0.446630D+02
      3   0.933795D+00 -0.298548D+00 -0.138283D+01
         5       -90.0537    -62.9392    -27.9428    -60.3119
 Total R(velocity) tensor for State=          5
                 1             2             3 
      1  -0.900537D+02  0.323362D+01  0.200348D+03
      2  -0.961980D+02 -0.629392D+02  0.625354D+02
      3   0.546578D+01 -0.711374D+01 -0.279428D+02
 R(velocity) tensor in inp. orien. for State=          5
                 1             2             3 
      1  -0.900537D+02  0.323362D+01  0.200348D+03
      2  -0.961980D+02 -0.629392D+02  0.625353D+02
      3   0.546578D+01 -0.711374D+01 -0.279428D+02
         6        -5.5753     -7.5772    -22.7589    -11.9705
 Total R(velocity) tensor for State=          6
                 1             2             3 
      1  -0.557529D+01 -0.325754D+01  0.104308D+02
      2  -0.969145D+01 -0.757716D+01  0.162938D+02
      3   0.906411D+01 -0.747113D+00 -0.227589D+02
 R(velocity) tensor in inp. orien. for State=          6
                 1             2             3 
      1  -0.557529D+01 -0.325754D+01  0.104308D+02
      2  -0.969145D+01 -0.757716D+01  0.162938D+02
      3   0.906411D+01 -0.747114D+00 -0.227589D+02
         7       -21.4878     -2.0128    -22.4271    -15.3092
 Total R(velocity) tensor for State=          7
                 1             2             3 
      1  -0.214878D+02 -0.436017D+01 -0.138833D+02
      2  -0.167521D+01 -0.201278D+01 -0.158178D+02
      3  -0.773441D+01 -0.354817D+01 -0.224271D+02
 R(velocity) tensor in inp. orien. for State=          7
                 1             2             3 
      1  -0.214878D+02 -0.436017D+01 -0.138833D+02
      2  -0.167520D+01 -0.201278D+01 -0.158178D+02
      3  -0.773441D+01 -0.354817D+01 -0.224271D+02
         8       -41.3085    -11.8989      3.1355    -16.6906
 Total R(velocity) tensor for State=          8
                 1             2             3 
      1  -0.413085D+02 -0.312425D+01 -0.208634D+02
      2  -0.560326D+01 -0.118989D+02 -0.108633D+02
      3   0.479464D+01  0.138241D+01  0.313551D+01
 R(velocity) tensor in inp. orien. for State=          8
                 1             2             3 
      1  -0.413085D+02 -0.312425D+01 -0.208634D+02
      2  -0.560326D+01 -0.118989D+02 -0.108633D+02
      3   0.479464D+01  0.138241D+01  0.313551D+01
         9         7.1794     30.5763     14.3660     17.3739
 Total R(velocity) tensor for State=          9
                 1             2             3 
      1   0.717943D+01 -0.813223D+02 -0.782934D+02
      2   0.798898D+00  0.305763D+02  0.981372D+01
      3  -0.377328D+01 -0.145454D+02  0.143660D+02
 R(velocity) tensor in inp. orien. for State=          9
                 1             2             3 
      1   0.717942D+01 -0.813223D+02 -0.782934D+02
      2   0.798900D+00  0.305763D+02  0.981373D+01
      3  -0.377328D+01 -0.145454D+02  0.143660D+02
        10        -1.3409     -1.7349      5.2347      0.7196
 Total R(velocity) tensor for State=         10
                 1             2             3 
      1  -0.134091D+01 -0.648100D+01  0.893196D+00
      2   0.135048D+00 -0.173486D+01 -0.274148D+00
      3  -0.517523D+01 -0.184416D+01  0.523468D+01
 R(velocity) tensor in inp. orien. for State=         10
                 1             2             3 
      1  -0.134091D+01 -0.648100D+01  0.893196D+00
      2   0.135048D+00 -0.173486D+01 -0.274148D+00
      3  -0.517523D+01 -0.184416D+01  0.523468D+01
        11         3.1558    106.0734    121.9092     77.0461
 Total R(velocity) tensor for State=         11
                 1             2             3 
      1   0.315576D+01  0.949030D+02 -0.568725D+02
      2   0.727436D+01  0.106073D+03  0.139702D+02
      3   0.538672D+01 -0.811489D+01  0.121909D+03
 R(velocity) tensor in inp. orien. for State=         11
                 1             2             3 
      1   0.315576D+01  0.949030D+02 -0.568725D+02
      2   0.727437D+01  0.106073D+03  0.139702D+02
      3   0.538672D+01 -0.811490D+01  0.121909D+03
        12        36.0213      2.2427      9.4107     15.8916
 Total R(velocity) tensor for State=         12
                 1             2             3 
      1   0.360213D+02 -0.302429D+01  0.268379D+02
      2   0.618132D+01  0.224265D+01 -0.125835D+02
      3   0.138847D+02 -0.101564D+01  0.941066D+01
 R(velocity) tensor in inp. orien. for State=         12
                 1             2             3 
      1   0.360213D+02 -0.302429D+01  0.268379D+02
      2   0.618132D+01  0.224265D+01 -0.125835D+02
      3   0.138847D+02 -0.101564D+01  0.941066D+01
        13       -18.6874    -12.6683     -1.6773    -11.0110
 Total R(velocity) tensor for State=         13
                 1             2             3 
      1  -0.186874D+02 -0.870892D+01  0.562627D+02
      2  -0.162650D+01 -0.126683D+02 -0.103725D+02
      3  -0.110125D+01 -0.440769D+01 -0.167733D+01
 R(velocity) tensor in inp. orien. for State=         13
                 1             2             3 
      1  -0.186874D+02 -0.870891D+01  0.562627D+02
      2  -0.162650D+01 -0.126683D+02 -0.103725D+02
      3  -0.110125D+01 -0.440769D+01 -0.167733D+01
        14        36.2426     13.5788    -18.2923     10.5097
 Total R(velocity) tensor for State=         14
                 1             2             3 
      1   0.362426D+02  0.329772D+01 -0.655135D+02
      2  -0.456050D+01  0.135788D+02  0.143455D+02
      3   0.115211D+02  0.685893D+01 -0.182923D+02
 R(velocity) tensor in inp. orien. for State=         14
                 1             2             3 
      1   0.362426D+02  0.329772D+01 -0.655135D+02
      2  -0.456050D+01  0.135788D+02  0.143455D+02
      3   0.115211D+02  0.685893D+01 -0.182923D+02
        15         4.1557   -104.6738    -42.6856    -47.7346
 Total R(velocity) tensor for State=         15
                 1             2             3 
      1   0.415572D+01  0.200651D+02 -0.722663D+02
      2  -0.321262D+02 -0.104674D+03  0.780416D+01
      3  -0.261163D+01 -0.454246D+01 -0.426856D+02
 R(velocity) tensor in inp. orien. for State=         15
                 1             2             3 
      1   0.415571D+01  0.200651D+02 -0.722663D+02
      2  -0.321262D+02 -0.104674D+03  0.780417D+01
      3  -0.261163D+01 -0.454246D+01 -0.426856D+02
        16        -2.1963    -15.3677     -1.9214     -6.4951
 Total R(velocity) tensor for State=         16
                 1             2             3 
      1  -0.219630D+01 -0.306360D+00 -0.560999D+00
      2  -0.354275D+02 -0.153677D+02  0.906199D+01
      3  -0.212175D+02 -0.497339D+01 -0.192139D+01
 R(velocity) tensor in inp. orien. for State=         16
                 1             2             3 
      1  -0.219630D+01 -0.306361D+00 -0.560998D+00
      2  -0.354275D+02 -0.153677D+02  0.906199D+01
      3  -0.212175D+02 -0.497339D+01 -0.192139D+01
        17        13.2924     11.5038     -2.2725      7.5079
 Total R(velocity) tensor for State=         17
                 1             2             3 
      1   0.132924D+02  0.196814D+02 -0.706075D+01
      2  -0.379626D+01  0.115038D+02  0.110168D+02
      3  -0.294622D+01 -0.116638D+02 -0.227250D+01
 R(velocity) tensor in inp. orien. for State=         17
                 1             2             3 
      1   0.132924D+02  0.196814D+02 -0.706075D+01
      2  -0.379626D+01  0.115038D+02  0.110168D+02
      3  -0.294622D+01 -0.116638D+02 -0.227250D+01
        18        -0.3546      5.2668      1.9563      2.2895
 Total R(velocity) tensor for State=         18
                 1             2             3 
      1  -0.354621D+00 -0.606837D+01 -0.747781D+01
      2   0.154365D+01  0.526681D+01  0.406390D+01
      3   0.349350D+01  0.654388D+01  0.195626D+01
 R(velocity) tensor in inp. orien. for State=         18
                 1             2             3 
      1  -0.354621D+00 -0.606837D+01 -0.747781D+01
      2   0.154365D+01  0.526681D+01  0.406390D+01
      3   0.349350D+01  0.654388D+01  0.195626D+01
        19         0.4284      9.9165      2.5680      4.3043
 Total R(velocity) tensor for State=         19
                 1             2             3 
      1   0.428362D+00  0.283852D+01  0.364375D+01
      2   0.942043D+00  0.991651D+01  0.375915D+00
      3   0.142278D+00  0.289610D+00  0.256802D+01
 R(velocity) tensor in inp. orien. for State=         19
                 1             2             3 
      1   0.428363D+00  0.283852D+01  0.364375D+01
      2   0.942044D+00  0.991651D+01  0.375915D+00
      3   0.142278D+00  0.289610D+00  0.256802D+01
        20       -15.2920    -12.5814    -10.6812    -12.8516
 Total R(velocity) tensor for State=         20
                 1             2             3 
      1  -0.152920D+02  0.643409D+01 -0.662297D+02
      2   0.106156D+00 -0.125814D+02  0.140006D+02
      3  -0.337868D+01 -0.223716D+01 -0.106812D+02
 R(velocity) tensor in inp. orien. for State=         20
                 1             2             3 
      1  -0.152920D+02  0.643409D+01 -0.662297D+02
      2   0.106156D+00 -0.125814D+02  0.140007D+02
      3  -0.337868D+01 -0.223716D+01 -0.106812D+02
 1/2[<0|r|b>*<b|rxdel|0> + (<0|rxdel|b>*<b|r|0>)*]
 Rotatory Strengths (R) in cgs (10**-40 erg-esu-cm/Gauss)
       state          XX          YY          ZZ     R(length)     R(au)
         1      -318.5726     -0.6661    106.1065    -71.0441     -0.1507
         2        26.7431     -5.5870     28.4398     16.5320      0.0351
         3      -119.8396     -4.5476     62.9390    -20.4828     -0.0434
         4       -14.5655     39.3778    -41.9064     -5.6981     -0.0121
         5      -119.4736      5.3081    -89.7260    -67.9638     -0.1442
         6       -38.1564     -3.9829      0.7553    -13.7947     -0.0293
         7        -1.0862     -2.0493    -14.8665     -6.0007     -0.0127
         8        -1.2590      0.7850    -32.3660    -10.9467     -0.0232
         9        37.0744    -43.1063    122.0979     38.6887      0.0821
        10        -1.5458      2.1831     21.5689      7.4021      0.0157
        11       214.2208     68.7143      9.7677     97.5676      0.2070
        12        -0.8259     75.2998      9.3864     27.9534      0.0593
        13       -18.2160     -4.6240     -8.0750    -10.3050     -0.0219
        14       -39.6115      4.7688     21.5865     -4.4187     -0.0094
        15      -109.8426     20.6158    -84.6155    -57.9474     -0.1229
        16       -28.1374     17.2682     -2.1602     -4.3431     -0.0092
        17        -7.8710     -3.1945     69.0915     19.3420      0.0410
        18        -3.3641      3.2507      7.0325      2.3063      0.0049
        19        14.1350      0.8264     -0.6434      4.7727      0.0101
        20       -21.4582      2.3892    -26.5890    -15.2193     -0.0323
  1/2[<0|del|b>*<b|r|0> + (<0|r|b>*<b|del|0>)*] (Au)
       state          X           Y           Z        Dip. S.   Osc.(frdel)
         1        -0.1289     -0.0031     -0.0593      0.1914      0.1276
         2        -0.0408      0.0008     -0.0261      0.0661      0.0440
         3        -0.0631     -0.2338     -0.0015      0.2983      0.1989
         4         0.0041     -0.1435     -0.0016      0.1410      0.0940
         5        -0.0693     -0.1117     -0.0234      0.2044      0.1363
         6        -0.0183     -0.0072     -0.0011      0.0266      0.0177
         7        -0.0006     -0.0023     -0.0008      0.0037      0.0025
         8         0.0002     -0.0055     -0.0026      0.0079      0.0053
         9        -0.0533     -0.0009     -0.0046      0.0588      0.0392
        10         0.0008      0.0001      0.0139     -0.0147     -0.0098
        11        -0.0341     -0.0008      0.0001      0.0349      0.0232
        12         0.0001     -0.0610     -0.0020      0.0629      0.0419
        13        -0.0203     -0.0034     -0.0006      0.0242      0.0161
        14        -0.0209     -0.0008     -0.0021      0.0238      0.0159
        15        -0.0254     -0.0034     -0.0004      0.0293      0.0195
        16        -0.0004     -0.0071     -0.0003      0.0078      0.0052
        17        -0.0278     -0.0023     -0.0291      0.0592      0.0395
        18        -0.0084     -0.0021     -0.0032      0.0137      0.0091
        19        -0.0017      0.0000      0.0000      0.0018      0.0012
        20        -0.0494     -0.0042     -0.0035      0.0571      0.0380
 Ground to excited state transition densities written to RWF  633

 Excitation energies and oscillator strengths:
 
 Excited State   1:      Singlet-A      4.7949 eV  258.58 nm  f=0.1847  <S**2>=0.000
      22 -> 23         0.68425
 This state for optimization and/or second-order correction.
 Copying the excited state density for this state as the 1-particle RhoCI density.
 
 Excited State   2:      Singlet-A      5.3870 eV  230.15 nm  f=0.0840  <S**2>=0.000
      21 -> 24         0.11159
      22 -> 24         0.68149
 
 Excited State   3:      Singlet-A      5.6464 eV  219.58 nm  f=0.2661  <S**2>=0.000
      21 -> 23         0.68367
 
 Excited State   4:      Singlet-A      6.1878 eV  200.37 nm  f=0.1514  <S**2>=0.000
      21 -> 24         0.55645
      22 -> 25         0.17164
      22 -> 26        -0.33560
      22 -> 27        -0.10640
 
 Excited State   5:      Singlet-A      6.4625 eV  191.85 nm  f=0.1690  <S**2>=0.000
      21 -> 24         0.34047
      21 -> 25        -0.10453
      22 -> 25        -0.14691
      22 -> 26         0.44820
      22 -> 27         0.26094
      22 -> 29         0.15395
 
 Excited State   6:      Singlet-A      6.8843 eV  180.10 nm  f=0.0256  <S**2>=0.000
      21 -> 24         0.10661
      21 -> 25         0.49184
      21 -> 26        -0.31962
      21 -> 27         0.21716
      21 -> 29         0.12903
      22 -> 27         0.20048
 
 Excited State   7:      Singlet-A      7.1577 eV  173.22 nm  f=0.0012  <S**2>=0.000
      21 -> 24        -0.11458
      21 -> 25        -0.18281
      21 -> 27        -0.10392
      22 -> 25         0.13012
      22 -> 26        -0.19926
      22 -> 27         0.46991
      22 -> 28         0.34290
      22 -> 32         0.13430
 
 Excited State   8:      Singlet-A      7.4213 eV  167.07 nm  f=0.0102  <S**2>=0.000
      22 -> 25         0.61752
      22 -> 26         0.21921
      22 -> 29         0.15682
 
 Excited State   9:      Singlet-A      7.5655 eV  163.88 nm  f=0.0563  <S**2>=0.000
      16 -> 23        -0.15432
      17 -> 24        -0.11494
      20 -> 23         0.63128
      20 -> 24        -0.11821
      22 -> 25         0.11583
 
 Excited State  10:      Singlet-A      7.6992 eV  161.03 nm  f=0.0218  <S**2>=0.000
      21 -> 25         0.20444
      21 -> 26         0.50258
      21 -> 27         0.21195
      21 -> 28        -0.32812
      21 -> 30         0.12828
      21 -> 31         0.12298
 
 Excited State  11:      Singlet-A      8.0485 eV  154.05 nm  f=0.0251  <S**2>=0.000
      13 -> 23        -0.11158
      16 -> 24        -0.15287
      17 -> 23        -0.20192
      18 -> 23         0.14319
      19 -> 23         0.22693
      20 -> 24         0.55558
 
 Excited State  12:      Singlet-A      8.2032 eV  151.14 nm  f=0.0743  <S**2>=0.000
      22 -> 26         0.15162
      22 -> 27        -0.35165
      22 -> 28         0.41464
      22 -> 29         0.10939
      22 -> 31        -0.15305
      22 -> 32         0.34161
 
 Excited State  13:      Singlet-A      8.3295 eV  148.85 nm  f=0.0218  <S**2>=0.000
      22 -> 25        -0.12953
      22 -> 26        -0.24299
      22 -> 28        -0.13891
      22 -> 29         0.52324
      22 -> 30        -0.30563
      22 -> 32        -0.10626
 
 Excited State  14:      Singlet-A      8.6227 eV  143.79 nm  f=0.0146  <S**2>=0.000
      15 -> 23        -0.11778
      18 -> 23         0.19489
      19 -> 23         0.28910
      19 -> 24         0.17402
      20 -> 23        -0.10695
      20 -> 24        -0.20057
      21 -> 25         0.24882
      21 -> 27        -0.28710
      21 -> 29        -0.25525
      21 -> 31        -0.13307
 
 Excited State  15:      Singlet-A      8.6681 eV  143.04 nm  f=0.0182  <S**2>=0.000
      15 -> 23        -0.10447
      18 -> 23         0.13865
      19 -> 23         0.29244
      19 -> 24         0.15309
      20 -> 23        -0.10609
      20 -> 24        -0.20109
      21 -> 25        -0.27131
      21 -> 27         0.25215
      21 -> 29         0.23178
      21 -> 31         0.22209
 
 Excited State  16:      Singlet-A      8.8205 eV  140.56 nm  f=0.0100  <S**2>=0.000
      14 -> 23         0.15933
      14 -> 24        -0.15495
      18 -> 23         0.45065
      18 -> 24        -0.26852
      19 -> 23        -0.29958
      19 -> 24         0.15849
 
 Excited State  17:      Singlet-A      8.9677 eV  138.26 nm  f=0.0590  <S**2>=0.000
      21 -> 26        -0.24704
      21 -> 27        -0.21747
      21 -> 28        -0.24374
      21 -> 29        -0.12768
      21 -> 30         0.29008
      21 -> 31         0.28523
      21 -> 32         0.21801
      22 -> 28        -0.17625
      22 -> 32         0.19693
 
 Excited State  18:      Singlet-A      9.0864 eV  136.45 nm  f=0.0104  <S**2>=0.000
      21 -> 27         0.13209
      21 -> 28         0.13669
      21 -> 30        -0.10230
      21 -> 31        -0.11098
      22 -> 28        -0.35298
      22 -> 30        -0.11149
      22 -> 31        -0.12044
      22 -> 32         0.47256
 
 Excited State  19:      Singlet-A      9.4283 eV  131.50 nm  f=0.0015  <S**2>=0.000
      21 -> 25         0.13278
      21 -> 26         0.16418
      21 -> 27        -0.37031
      21 -> 28         0.14540
      21 -> 29         0.37835
      21 -> 30        -0.11618
      21 -> 31         0.32668
 
 Excited State  20:      Singlet-A      9.5256 eV  130.16 nm  f=0.0444  <S**2>=0.000
      22 -> 29         0.35685
      22 -> 30         0.55901
      22 -> 32         0.16462
 SavETr:  write IOETrn=   770 NScale= 10 NData=  16 NLR=1 LETran=     350.

 **********************************************************************

            Population analysis using the SCF density.

 **********************************************************************

 Orbital symmetries:
       Occupied  (A) (A) (A) (A) (A) (A) (A) (A) (A) (A) (A) (A)
                 (A) (A) (A) (A) (A) (A) (A) (A) (A) (A)
       Virtual   (A) (A) (A) (A) (A) (A) (A) (A) (A) (A) (A) (A)
                 (A) (A) (A) (A) (A) (A) (A) (A) (A) (A)
 The electronic state is 1-A.
 Alpha  occ. eigenvalues --   -1.63440  -1.39324  -1.33446  -1.09934  -1.07435
 Alpha  occ. eigenvalues --   -0.94005  -0.85424  -0.79604  -0.76095  -0.75361
 Alpha  occ. eigenvalues --   -0.68394  -0.66254  -0.57530  -0.55969  -0.55094
 Alpha  occ. eigenvalues --   -0.53108  -0.52205  -0.46366  -0.45894  -0.43602
 Alpha  occ. eigenvalues --   -0.33966  -0.31058
 Alpha virt. eigenvalues --    0.03482   0.06152   0.10771   0.12621   0.12865
 Alpha virt. eigenvalues --    0.16546   0.17181   0.19366   0.20267   0.22420
 Alpha virt. eigenvalues --    0.25488   0.25835   0.26286   0.26504   0.28325
 Alpha virt. eigenvalues --    0.29543   0.31791   0.32949   0.33944   0.37611
 Alpha virt. eigenvalues --    0.42757   0.45720
          Condensed to atoms (all electrons):
              1          2          3          4          5          6
     1  C    4.042871   0.000000   0.000000   0.000000   0.000000   0.000000
     2  C    0.000000   4.078723   0.000000   0.000000   0.000000   0.000000
     3  C    0.000000   0.000000   4.025876   0.000000   0.000000   0.000000
     4  C    0.000000   0.000000   0.000000   4.032027   0.000000   0.000000
     5  C    0.000000   0.000000   0.000000   0.000000   4.025224   0.000000
     6  C    0.000000   0.000000   0.000000   0.000000   0.000000   4.019653
     7  H    0.000000   0.000000   0.000000   0.000000   0.000000   0.000000
     8  H    0.000000   0.000000   0.000000   0.000000   0.000000   0.000000
     9  H    0.000000   0.000000   0.000000   0.000000   0.000000   0.000000
    10  H    0.000000   0.000000   0.000000   0.000000   0.000000   0.000000
    11  H    0.000000   0.000000   0.000000   0.000000   0.000000   0.000000
    12  H    0.000000   0.000000   0.000000   0.000000   0.000000   0.000000
    13  H    0.000000   0.000000   0.000000   0.000000   0.000000   0.000000
    14  H    0.000000   0.000000   0.000000   0.000000   0.000000   0.000000
    15  H    0.000000   0.000000   0.000000   0.000000   0.000000   0.000000
    16  C    0.000000   0.000000   0.000000   0.000000   0.000000   0.000000
    17  H    0.000000   0.000000   0.000000   0.000000   0.000000   0.000000
    18  C    0.000000   0.000000   0.000000   0.000000   0.000000   0.000000
    19  H    0.000000   0.000000   0.000000   0.000000   0.000000   0.000000
    20  H    0.000000   0.000000   0.000000   0.000000   0.000000   0.000000
              7          8          9         10         11         12
     1  C    0.000000   0.000000   0.000000   0.000000   0.000000   0.000000
     2  C    0.000000   0.000000   0.000000   0.000000   0.000000   0.000000
     3  C    0.000000   0.000000   0.000000   0.000000   0.000000   0.000000
     4  C    0.000000   0.000000   0.000000   0.000000   0.000000   0.000000
     5  C    0.000000   0.000000   0.000000   0.000000   0.000000   0.000000
     6  C    0.000000   0.000000   0.000000   0.000000   0.000000   0.000000
     7  H    0.958650   0.000000   0.000000   0.000000   0.000000   0.000000
     8  H    0.000000   0.964866   0.000000   0.000000   0.000000   0.000000
     9  H    0.000000   0.000000   0.973542   0.000000   0.000000   0.000000
    10  H    0.000000   0.000000   0.000000   0.986447   0.000000   0.000000
    11  H    0.000000   0.000000   0.000000   0.000000   0.957769   0.000000
    12  H    0.000000   0.000000   0.000000   0.000000   0.000000   0.993539
    13  H    0.000000   0.000000   0.000000   0.000000   0.000000   0.000000
    14  H    0.000000   0.000000   0.000000   0.000000   0.000000   0.000000
    15  H    0.000000   0.000000   0.000000   0.000000   0.000000   0.000000
    16  C    0.000000   0.000000   0.000000   0.000000   0.000000   0.000000
    17  H    0.000000   0.000000   0.000000   0.000000   0.000000   0.000000
    18  C    0.000000   0.000000   0.000000   0.000000   0.000000   0.000000
    19  H    0.000000   0.000000   0.000000   0.000000   0.000000   0.000000
    20  H    0.000000   0.000000   0.000000   0.000000   0.000000   0.000000
             13         14         15         16         17         18
     1  C    0.000000   0.000000   0.000000   0.000000   0.000000   0.000000
     2  C    0.000000   0.000000   0.000000   0.000000   0.000000   0.000000
     3  C    0.000000   0.000000   0.000000   0.000000   0.000000   0.000000
     4  C    0.000000   0.000000   0.000000   0.000000   0.000000   0.000000
     5  C    0.000000   0.000000   0.000000   0.000000   0.000000   0.000000
     6  C    0.000000   0.000000   0.000000   0.000000   0.000000   0.000000
     7  H    0.000000   0.000000   0.000000   0.000000   0.000000   0.000000
     8  H    0.000000   0.000000   0.000000   0.000000   0.000000   0.000000
     9  H    0.000000   0.000000   0.000000   0.000000   0.000000   0.000000
    10  H    0.000000   0.000000   0.000000   0.000000   0.000000   0.000000
    11  H    0.000000   0.000000   0.000000   0.000000   0.000000   0.000000
    12  H    0.000000   0.000000   0.000000   0.000000   0.000000   0.000000
    13  H    0.977364   0.000000   0.000000   0.000000   0.000000   0.000000
    14  H    0.000000   0.979839   0.000000   0.000000   0.000000   0.000000
    15  H    0.000000   0.000000   0.973067   0.000000   0.000000   0.000000
    16  C    0.000000   0.000000   0.000000   4.048171   0.000000   0.000000
    17  H    0.000000   0.000000   0.000000   0.000000   0.975153   0.000000
    18  C    0.000000   0.000000   0.000000   0.000000   0.000000   4.022697
    19  H    0.000000   0.000000   0.000000   0.000000   0.000000   0.000000
    20  H    0.000000   0.000000   0.000000   0.000000   0.000000   0.000000
             19         20
     1  C    0.000000   0.000000
     2  C    0.000000   0.000000
     3  C    0.000000   0.000000
     4  C    0.000000   0.000000
     5  C    0.000000   0.000000
     6  C    0.000000   0.000000
     7  H    0.000000   0.000000
     8  H    0.000000   0.000000
     9  H    0.000000   0.000000
    10  H    0.000000   0.000000
    11  H    0.000000   0.000000
    12  H    0.000000   0.000000
    13  H    0.000000   0.000000
    14  H    0.000000   0.000000
    15  H    0.000000   0.000000
    16  C    0.000000   0.000000
    17  H    0.000000   0.000000
    18  C    0.000000   0.000000
    19  H    0.972604   0.000000
    20  H    0.000000   0.991917
 Mulliken atomic charges:
              1
     1  C   -0.042871
     2  C   -0.078723
     3  C   -0.025876
     4  C   -0.032027
     5  C   -0.025224
     6  C   -0.019653
     7  H    0.041350
     8  H    0.035134
     9  H    0.026458
    10  H    0.013553
    11  H    0.042231
    12  H    0.006461
    13  H    0.022636
    14  H    0.020161
    15  H    0.026933
    16  C   -0.048171
    17  H    0.024847
    18  C   -0.022697
    19  H    0.027396
    20  H    0.008083
 Sum of Mulliken atomic charges =   0.00000
 Mulliken charges with hydrogens summed into heavy atoms:
              1
     1  C   -0.000640
     2  C   -0.037373
     3  C    0.007043
     4  C    0.003107
     5  C    0.010965
     6  C    0.027440
    16  C   -0.023324
    18  C    0.012782
 Sum of Mulliken charges with hydrogens summed into heavy atoms =   0.00000
 Charge=              0.0000 electrons
 Dipole moment (field-independent basis, Debye):
    X=             -0.4190    Y=              0.8525    Z=              0.2906  Tot=              0.9933
 N-N= 1.402534627301D+02 E-N= 0.000000000000D+00  KE=-3.550887907666D+02
 1|1|UNPC-DESKTOP-K2VF0AK|SP|RZINDO|STO-3G|C8H12|MELIH|10-Dec-2024|0||#
  rzindo=(nstates=20) scrf=(solvent=water) geom=connectivity||Title Car
 d Required||0,1|C,0,1.864635,-0.871621,-0.016114|C,0,0.552765,-1.43919
 8,0.381533|C,0,-0.623108,1.43622,-0.386024|C,0,-0.442799,-1.261713,-0.
 462649|C,0,-1.745367,0.609676,0.33215|C,0,-1.843217,-0.910486,-0.06630
 7|H,0,0.385331,-1.703147,1.412227|H,0,-0.19087,-1.013151,-1.476761|H,0
 ,-0.551292,1.173689,-1.432914|H,0,-2.699977,1.0888,0.141131|H,0,2.7298
 77,-1.482029,-0.19637|H,0,-0.953612,2.470436,-0.352534|H,0,-1.563994,0
 .666157,1.399726|H,0,-2.536108,-1.038163,-0.888541|H,0,-2.201135,-1.48
 5587,0.778979|C,0,1.911338,0.446827,-0.135898|H,0,2.832701,0.910743,-0
 .442979|C,0,0.80461,1.43288,0.282323|H,0,0.661505,1.331286,1.354523|H,
 0,1.214431,2.425452,0.12943||Version=IA32W-G09RevA.02|State=1-A|HF=-54
 .0060716|RMSD=3.025e-009|PG=C01 [X(C8H12)]||@


 ERROR IS THE FORCE THAT WELDS MEN TOGETHER....
 TRUTH IS COMMUNICATED TO MEN ONLY BY DEEDS OF TRUTH.
           TOLSTOI,MY RELIGION
 Job cpu time:  0 days  0 hours  0 minutes 16.0 seconds.
 File lengths (MBytes):  RWF=    141 Int=      0 D2E=      0 Chk=      3 Scr=      1
 Normal termination of Gaussian 09 at Tue Dec 10 19:06:22 2024.
