 Entering Link 1 = C:\G09W\l1.exe PID=     22648.
  
 Copyright (c) 1988,1990,1992,1993,1995,1998,2003,2009, Gaussian, Inc.
                  All Rights Reserved.
  
 This is part of the Gaussian(R) 09 program.  It is based on
 the Gaussian(R) 03 system (copyright 2003, Gaussian, Inc.),
 the Gaussian(R) 98 system (copyright 1998, Gaussian, Inc.),
 the Gaussian(R) 94 system (copyright 1995, Gaussian, Inc.),
 the Gaussian 92(TM) system (copyright 1992, Gaussian, Inc.),
 the Gaussian 90(TM) system (copyright 1990, Gaussian, Inc.),
 the Gaussian 88(TM) system (copyright 1988, Gaussian, Inc.),
 the Gaussian 86(TM) system (copyright 1986, Carnegie Mellon
 University), and the Gaussian 82(TM) system (copyright 1983,
 Carnegie Mellon University). Gaussian is a federally registered
 trademark of Gaussian, Inc.
  
 This software contains proprietary and confidential information,
 including trade secrets, belonging to Gaussian, Inc.
  
 This software is provided under written license and may be
 used, copied, transmitted, or stored only in accord with that
 written license.
  
 The following legend is applicable only to US Government
 contracts under FAR:
  
                    RESTRICTED RIGHTS LEGEND
  
 Use, reproduction and disclosure by the US Government is
 subject to restrictions as set forth in subparagraphs (a)
 and (c) of the Commercial Computer Software - Restricted
 Rights clause in FAR 52.227-19.
  
 Gaussian, Inc.
 340 Quinnipiac St., Bldg. 40, Wallingford CT 06492
  
  
 ---------------------------------------------------------------
 Warning -- This program may not be used in any manner that
 competes with the business of Gaussian, Inc. or will provide
 assistance to any competitor of Gaussian, Inc.  The licensee
 of this program is prohibited from giving any competitor of
 Gaussian, Inc. access to this program.  By using this program,
 the user acknowledges that Gaussian, Inc. is engaged in the
 business of creating and licensing software in the field of
 computational chemistry and represents and warrants to the
 licensee that it is not a competitor of Gaussian, Inc. and that
 it will not use this program in any manner prohibited above.
 ---------------------------------------------------------------
  

 Cite this work as:
 Gaussian 09, Revision A.02,
 M. J. Frisch, G. W. Trucks, H. B. Schlegel, G. E. Scuseria, 
 M. A. Robb, J. R. Cheeseman, G. Scalmani, V. Barone, B. Mennucci, 
 G. A. Petersson, H. Nakatsuji, M. Caricato, X. Li, H. P. Hratchian, 
 A. F. Izmaylov, J. Bloino, G. Zheng, J. L. Sonnenberg, M. Hada, 
 M. Ehara, K. Toyota, R. Fukuda, J. Hasegawa, M. Ishida, T. Nakajima, 
 Y. Honda, O. Kitao, H. Nakai, T. Vreven, J. A. Montgomery, Jr., 
 J. E. Peralta, F. Ogliaro, M. Bearpark, J. J. Heyd, E. Brothers, 
 K. N. Kudin, V. N. Staroverov, R. Kobayashi, J. Normand, 
 K. Raghavachari, A. Rendell, J. C. Burant, S. S. Iyengar, J. Tomasi, 
 M. Cossi, N. Rega, J. M. Millam, M. Klene, J. E. Knox, J. B. Cross, 
 V. Bakken, C. Adamo, J. Jaramillo, R. Gomperts, R. E. Stratmann, 
 O. Yazyev, A. J. Austin, R. Cammi, C. Pomelli, J. W. Ochterski, 
 R. L. Martin, K. Morokuma, V. G. Zakrzewski, G. A. Voth, 
 P. Salvador, J. J. Dannenberg, S. Dapprich, A. D. Daniels, 
 O. Farkas, J. B. Foresman, J. V. Ortiz, J. Cioslowski, 
 and D. J. Fox, Gaussian, Inc., Wallingford CT, 2009.
 
 ******************************************
 Gaussian 09:  IA32W-G09RevA.02 11-Jun-2009
                10-Dec-2024 
 ******************************************
 %chk=C:\G09W\ethoxide\cycloheptadiene.chk
 -------------------------------------
 # opt freq hf/3-21g geom=connectivity
 -------------------------------------
 1/18=20,19=15,38=1,57=2/1,3;
 2/9=110,12=2,17=6,18=5,40=1/2;
 3/5=5,11=9,16=1,25=1,30=1,71=1/1,2,3;
 4//1;
 5/5=2,38=5/2;
 6/7=2,8=2,9=2,10=2,28=1/1;
 7//1,2,3,16;
 1/18=20,19=15/3(2);
 2/9=110/2;
 99//99;
 2/9=110/2;
 3/5=5,11=9,16=1,25=1,30=1,71=1/1,2,3;
 4/5=5,16=3/1;
 5/5=2,38=5/2;
 7//1,2,3,16;
 1/18=20,19=15/3(-5);
 2/9=110/2;
 6/7=2,8=2,9=2,10=2,19=2,28=1/1;
 99/9=1/99;
 -------------------
 Title Card Required
 -------------------
 Symbolic Z-matrix:
 Charge =  0 Multiplicity = 1
 C                     0.83343  -2.14286   0. 
 C                     2.34821  -2.14286   0. 
 C                     2.95508  -0.75706   0. 
 C                     0.24817  -1.77461   1.34754 
 C                     2.49111   0.10928   1.15276 
 C                     0.0081   -0.29227   1.53957 
 C                     1.076     0.61731   0.97035 
 H                     0.45354  -1.44102  -0.78752 
 H                     2.71572  -0.24601  -0.97034 
 H                     0.92602  -2.1488    2.16092 
 H                    -0.09281  -0.09506   2.64087 
 H                     2.70911  -2.68812  -0.91326 
 H                    -0.73324  -2.30614   1.47621 
 H                     3.18252   0.99106   1.23086 
 H                    -0.97322  -0.01553   1.06793 
 H                     0.98155   1.61992   1.46849 
 H                     0.87903   0.78135  -0.12304 
 

 GradGradGradGradGradGradGradGradGradGradGradGradGradGradGradGradGradGrad
 Berny optimization.
 Initialization pass.
                           ----------------------------
                           !    Initial Parameters    !
                           ! (Angstroms and Degrees)  !
 --------------------------                            --------------------------
 ! Name  Definition              Value          Derivative Info.                !
 --------------------------------------------------------------------------------
 ! R1    R(1,2)                  1.5148         estimate D2E/DX2                !
 ! R2    R(1,4)                  1.5146         estimate D2E/DX2                !
 ! R3    R(1,8)                  1.1212         estimate D2E/DX2                !
 ! R4    R(2,3)                  1.5129         estimate D2E/DX2                !
 ! R5    R(2,12)                 1.1232         estimate D2E/DX2                !
 ! R6    R(3,5)                  1.5148         estimate D2E/DX2                !
 ! R7    R(3,9)                  1.1225         estimate D2E/DX2                !
 ! R8    R(4,6)                  1.5139         estimate D2E/DX2                !
 ! R9    R(4,10)                 1.123          estimate D2E/DX2                !
 ! R10   R(4,13)                 1.1235         estimate D2E/DX2                !
 ! R11   R(5,7)                  1.5146         estimate D2E/DX2                !
 ! R12   R(5,14)                 1.1232         estimate D2E/DX2                !
 ! R13   R(6,7)                  1.5139         estimate D2E/DX2                !
 ! R14   R(6,11)                 1.1234         estimate D2E/DX2                !
 ! R15   R(6,15)                 1.1234         estimate D2E/DX2                !
 ! R16   R(7,16)                 1.1235         estimate D2E/DX2                !
 ! R17   R(7,17)                 1.123          estimate D2E/DX2                !
 ! A1    A(2,1,4)              112.7316         estimate D2E/DX2                !
 ! A2    A(2,1,8)              109.8055         estimate D2E/DX2                !
 ! A3    A(4,1,8)              109.9862         estimate D2E/DX2                !
 ! A4    A(1,2,3)              113.6492         estimate D2E/DX2                !
 ! A5    A(1,2,12)             108.7422         estimate D2E/DX2                !
 ! A6    A(3,2,12)             108.4087         estimate D2E/DX2                !
 ! A7    A(2,3,5)              113.6418         estimate D2E/DX2                !
 ! A8    A(2,3,9)              109.3602         estimate D2E/DX2                !
 ! A9    A(5,3,9)              109.3991         estimate D2E/DX2                !
 ! A10   A(1,4,6)              114.3431         estimate D2E/DX2                !
 ! A11   A(1,4,10)             109.278          estimate D2E/DX2                !
 ! A12   A(1,4,13)             108.9297         estimate D2E/DX2                !
 ! A13   A(6,4,10)             109.2756         estimate D2E/DX2                !
 ! A14   A(6,4,13)             108.0712         estimate D2E/DX2                !
 ! A15   A(10,4,13)            106.6597         estimate D2E/DX2                !
 ! A16   A(3,5,7)              112.7283         estimate D2E/DX2                !
 ! A17   A(3,5,14)             108.2607         estimate D2E/DX2                !
 ! A18   A(7,5,14)             108.6738         estimate D2E/DX2                !
 ! A19   A(4,6,7)              115.3887         estimate D2E/DX2                !
 ! A20   A(4,6,11)             108.0893         estimate D2E/DX2                !
 ! A21   A(4,6,15)             109.0554         estimate D2E/DX2                !
 ! A22   A(7,6,11)             109.0569         estimate D2E/DX2                !
 ! A23   A(7,6,15)             108.0791         estimate D2E/DX2                !
 ! A24   A(11,6,15)            106.8505         estimate D2E/DX2                !
 ! A25   A(5,7,6)              114.3478         estimate D2E/DX2                !
 ! A26   A(5,7,16)             108.9344         estimate D2E/DX2                !
 ! A27   A(5,7,17)             109.2766         estimate D2E/DX2                !
 ! A28   A(6,7,16)             108.0687         estimate D2E/DX2                !
 ! A29   A(6,7,17)             109.2761         estimate D2E/DX2                !
 ! A30   A(16,7,17)            106.6529         estimate D2E/DX2                !
 ! D1    D(4,1,2,3)            -74.7156         estimate D2E/DX2                !
 ! D2    D(4,1,2,12)           164.445          estimate D2E/DX2                !
 ! D3    D(8,1,2,3)             48.2923         estimate D2E/DX2                !
 ! D4    D(8,1,2,12)           -72.5471         estimate D2E/DX2                !
 ! D5    D(2,1,4,6)             89.9522         estimate D2E/DX2                !
 ! D6    D(2,1,4,10)           -32.8739         estimate D2E/DX2                !
 ! D7    D(2,1,4,13)          -149.0438         estimate D2E/DX2                !
 ! D8    D(8,1,4,6)            -32.9549         estimate D2E/DX2                !
 ! D9    D(8,1,4,10)          -155.781          estimate D2E/DX2                !
 ! D10   D(8,1,4,13)            88.0491         estimate D2E/DX2                !
 ! D11   D(1,2,3,5)             56.1718         estimate D2E/DX2                !
 ! D12   D(1,2,3,9)            -66.3842         estimate D2E/DX2                !
 ! D13   D(12,2,3,5)           177.1983         estimate D2E/DX2                !
 ! D14   D(12,2,3,9)            54.6422         estimate D2E/DX2                !
 ! D15   D(2,3,5,7)            -74.7339         estimate D2E/DX2                !
 ! D16   D(2,3,5,14)           165.0169         estimate D2E/DX2                !
 ! D17   D(9,3,5,7)             47.8007         estimate D2E/DX2                !
 ! D18   D(9,3,5,14)           -72.4484         estimate D2E/DX2                !
 ! D19   D(1,4,6,7)            -39.2098         estimate D2E/DX2                !
 ! D20   D(1,4,6,11)          -161.5691         estimate D2E/DX2                !
 ! D21   D(1,4,6,15)            82.6168         estimate D2E/DX2                !
 ! D22   D(10,4,6,7)            83.6176         estimate D2E/DX2                !
 ! D23   D(10,4,6,11)          -38.7417         estimate D2E/DX2                !
 ! D24   D(10,4,6,15)         -154.5558         estimate D2E/DX2                !
 ! D25   D(13,4,6,7)          -160.6873         estimate D2E/DX2                !
 ! D26   D(13,4,6,11)           76.9534         estimate D2E/DX2                !
 ! D27   D(13,4,6,15)          -38.8607         estimate D2E/DX2                !
 ! D28   D(3,5,7,6)             89.9514         estimate D2E/DX2                !
 ! D29   D(3,5,7,16)          -149.0414         estimate D2E/DX2                !
 ! D30   D(3,5,7,17)           -32.8776         estimate D2E/DX2                !
 ! D31   D(14,5,7,6)          -150.0372         estimate D2E/DX2                !
 ! D32   D(14,5,7,16)          -29.0299         estimate D2E/DX2                !
 ! D33   D(14,5,7,17)           87.1338         estimate D2E/DX2                !
 ! D34   D(4,6,7,5)            -39.171          estimate D2E/DX2                !
 ! D35   D(4,6,7,16)          -160.6557         estimate D2E/DX2                !
 ! D36   D(4,6,7,17)            83.6583         estimate D2E/DX2                !
 ! D37   D(11,6,7,5)            82.67           estimate D2E/DX2                !
 ! D38   D(11,6,7,16)          -38.8147         estimate D2E/DX2                !
 ! D39   D(11,6,7,17)         -154.5007         estimate D2E/DX2                !
 ! D40   D(15,6,7,5)          -161.5206         estimate D2E/DX2                !
 ! D41   D(15,6,7,16)           76.9947         estimate D2E/DX2                !
 ! D42   D(15,6,7,17)          -38.6913         estimate D2E/DX2                !
 --------------------------------------------------------------------------------
 Trust Radius=3.00D-01 FncErr=1.00D-07 GrdErr=1.00D-07
 Number of steps in this run=  99 maximum allowed number of steps= 102.
 GradGradGradGradGradGradGradGradGradGradGradGradGradGradGradGradGradGrad

                          Input orientation:                          
 ---------------------------------------------------------------------
 Center     Atomic      Atomic             Coordinates (Angstroms)
 Number     Number       Type             X           Y           Z
 ---------------------------------------------------------------------
      1          6           0        0.833427   -2.142857    0.000000
      2          6           0        2.348214   -2.142857    0.000000
      3          6           0        2.955075   -0.757055    0.000000
      4          6           0        0.248165   -1.774607    1.347540
      5          6           0        2.491106    0.109281    1.152755
      6          6           0        0.008096   -0.292274    1.539568
      7          6           0        1.076004    0.617309    0.970347
      8          1           0        0.453535   -1.441017   -0.787516
      9          1           0        2.715724   -0.246007   -0.970342
     10          1           0        0.926023   -2.148796    2.160924
     11          1           0       -0.092813   -0.095059    2.640874
     12          1           0        2.709114   -2.688122   -0.913262
     13          1           0       -0.733238   -2.306139    1.476207
     14          1           0        3.182517    0.991058    1.230855
     15          1           0       -0.973223   -0.015530    1.067927
     16          1           0        0.981547    1.619919    1.468490
     17          1           0        0.879034    0.781354   -0.123036
 ---------------------------------------------------------------------
                    Distance matrix (angstroms):
                    1          2          3          4          5
     1  C    0.000000
     2  C    1.514787   0.000000
     3  C    2.534134   1.512854   0.000000
     4  C    1.514597   2.522237   3.190398   0.000000
     5  C    3.024710   2.534046   1.514810   2.935602   0.000000
     6  C    2.544818   3.357243   3.357227   1.513875   2.544840
     7  C    2.935802   3.190393   2.522173   2.559073   1.514556
     8  H    1.121195   2.168541   2.710293   2.170696   3.212440
     9  H    2.842999   2.162098   1.122507   3.714572   2.164307
    10  H    2.162915   2.586939   3.274689   1.122988   2.926568
    11  H    3.467797   4.138394   4.086817   2.147059   2.988794
    12  H    2.156285   1.123214   2.150247   3.464391   3.484454
    13  H    2.158770   3.420701   4.264094   1.123492   4.041691
    14  H    4.105442   3.468788   2.150031   4.033973   1.123245
    15  H    2.988306   4.086310   4.137856   2.159705   3.467614
    16  H    4.041891   4.264121   3.420714   3.474951   2.158815
    17  H    2.927154   3.274849   2.586849   3.015547   2.162892
                    6          7          8          9         10
     6  C    0.000000
     7  C    1.513863   0.000000
     8  H    2.633125   2.777455   0.000000
     9  H    3.692294   2.683332   2.564951   0.000000
    10  H    2.162255   3.015179   3.068794   4.077801   0.000000
    11  H    1.123366   2.159690   3.723434   4.577286   2.342267
    12  H    4.364855   4.140158   2.580449   2.442791   3.594566
    13  H    2.146915   3.475025   2.698390   4.703731   1.801872
    14  H    3.437905   2.155215   4.175662   2.567780   3.976868
    15  H    1.123396   2.146937   2.740496   4.220899   3.058202
    16  H    2.146891   1.123519   3.838970   3.526606   3.832200
    17  H    2.162282   1.123029   2.358287   2.268662   3.715435
                   11         12         13         14         15
    11  H    0.000000
    12  H    5.216000   0.000000
    13  H    2.579819   4.207762   0.000000
    14  H    3.727679   4.284590   5.124924   0.000000
    15  H    1.804331   4.962607   2.339054   4.279012   0.000000
    16  H    2.338778   5.216939   4.284213   2.301349   2.579975
    17  H    3.058069   4.001364   3.832703   2.680118   2.341852
                   16         17
    16  H    0.000000
    17  H    1.801848   0.000000
 Stoichiometry    C7H10
 Framework group  C1[X(C7H10)]
 Deg. of freedom    45
 Full point group                 C1      NOp   1
 Largest Abelian subgroup         C1      NOp   1
 Largest concise Abelian subgroup C1      NOp   1
                         Standard orientation:                         
 ---------------------------------------------------------------------
 Center     Atomic      Atomic             Coordinates (Angstroms)
 Number     Number       Type             X           Y           Z
 ---------------------------------------------------------------------
      1          6           0       -0.404286   -1.461270    0.405386
      2          6           0       -1.602701   -0.774552   -0.216546
      3          6           0       -1.611100    0.725705   -0.021905
      4          6           0        0.868852   -1.247947   -0.386836
      5          6           0       -0.363359    1.412228   -0.538119
      6          6           0        1.660936   -0.024484    0.022505
      7          6           0        0.836428    1.199109    0.361309
      8          1           0       -0.265018   -1.102486    1.458456
      9          1           0       -1.740868    0.958759    1.068448
     10          1           0        0.618525   -1.179046   -1.479398
     11          1           0        2.367537    0.229238   -0.813134
     12          1           0       -2.537910   -1.196745    0.240345
     13          1           0        1.529737   -2.148151   -0.263968
     14          1           0       -0.570527    2.514097   -0.606283
     15          1           0        2.291835   -0.278280    0.916694
     16          1           0        1.505573    2.099254    0.295892
     17          1           0        0.492489    1.130624    1.428178
 ---------------------------------------------------------------------
 Rotational constants (GHZ):      3.6142007      3.1379899      1.9211478
 Standard basis: 3-21G (6D, 7F)
 There are    83 symmetry adapted basis functions of A   symmetry.
 Integral buffers will be    262144 words long.
 Raffenetti 1 integral format.
 Two-electron integral symmetry is turned on.
    83 basis functions,   135 primitive gaussians,    83 cartesian basis functions
    26 alpha electrons       26 beta electrons
       nuclear repulsion energy       286.3457001566 Hartrees.
 NAtoms=   17 NActive=   17 NUniq=   17 SFac= 7.50D-01 NAtFMM=   80 NAOKFM=F Big=F
 One-electron integrals computed using PRISM.
 NBasis=    83 RedAO= T  NBF=    83
 NBsUse=    83 1.00D-06 NBFU=    83
 Harris functional with IExCor=  205 diagonalized for initial guess.
 ExpMin= 1.83D-01 ExpMax= 1.72D+02 ExpMxC= 1.72D+02 IAcc=1 IRadAn=         1 AccDes= 0.00D+00
 HarFok:  IExCor=  205 AccDes= 0.00D+00 IRadAn=         1 IDoV= 1
 ScaDFX=  1.000000  1.000000  1.000000  1.000000
 FoFCou: FMM=F IPFlag=           0 FMFlag=      100000 FMFlg1=           0
         NFxFlg=           0 DoJE=T BraDBF=F KetDBF=T FulRan=T
         Omega=  0.000000  0.000000  1.000000  0.000000  0.000000 ICntrl=     500 IOpCl=  0
         NMat0=    1 NMatS0=    1 NMatT0=    0 NMatD0=    1 NMtDS0=    0 NMtDT0=    0
         I1Cent=           4 NGrid=           0.
 Petite list used in FoFCou.
 Initial guess orbital symmetries:
       Occupied  (A) (A) (A) (A) (A) (A) (A) (A) (A) (A) (A) (A)
                 (A) (A) (A) (A) (A) (A) (A) (A) (A) (A) (A) (A)
                 (A) (A)
       Virtual   (A) (A) (A) (A) (A) (A) (A) (A) (A) (A) (A) (A)
                 (A) (A) (A) (A) (A) (A) (A) (A) (A) (A) (A) (A)
                 (A) (A) (A) (A) (A) (A) (A) (A) (A) (A) (A) (A)
                 (A) (A) (A) (A) (A) (A) (A) (A) (A) (A) (A) (A)
                 (A) (A) (A) (A) (A) (A) (A) (A) (A)
 The electronic state of the initial guess is 1-A.
 Requested convergence on RMS density matrix=1.00D-08 within 128 cycles.
 Requested convergence on MAX density matrix=1.00D-06.
 Requested convergence on             energy=1.00D-06.
 No special actions if energy rises.
 Keep R1 ints in memory in canonical form, NReq=6917692.
 Rare condition: small coef for last iteration:  0.000D+00
 Rare condition: small coef for last iteration:  0.000D+00
 Rare condition: small coef for last iteration:  0.000D+00
 Rare condition: small coef for last iteration:  0.000D+00
 Rare condition: small coef for last iteration:  0.000D+00
 Rare condition: small coef for last iteration:  0.000D+00
 Rare condition: small coef for last iteration:  0.000D+00
 Rare condition: small coef for last iteration:  0.000D+00
 Rare condition: small coef for last iteration:  0.000D+00
 Rare condition: small coef for last iteration:  0.000D+00
 SCF Done:  E(RHF) =  -268.968761929     A.U. after   41 cycles
             Convg  =    0.8208D-08             -V/T =  2.0036

 **********************************************************************

            Population analysis using the SCF density.

 **********************************************************************

 Orbital symmetries:
       Occupied  (A) (A) (A) (A) (A) (A) (A) (A) (A) (A) (A) (A)
                 (A) (A) (A) (A) (A) (A) (A) (A) (A) (A) (A) (A)
                 (A) (A)
       Virtual   (A) (A) (A) (A) (A) (A) (A) (A) (A) (A) (A) (A)
                 (A) (A) (A) (A) (A) (A) (A) (A) (A) (A) (A) (A)
                 (A) (A) (A) (A) (A) (A) (A) (A) (A) (A) (A) (A)
                 (A) (A) (A) (A) (A) (A) (A) (A) (A) (A) (A) (A)
                 (A) (A) (A) (A) (A) (A) (A) (A) (A)
 The electronic state is 1-A.
 Alpha  occ. eigenvalues --  -11.24508 -11.23511 -11.22227 -11.18335 -11.17910
 Alpha  occ. eigenvalues --  -11.17142 -11.14247  -1.12702  -1.03723  -1.02145
 Alpha  occ. eigenvalues --   -0.87254  -0.86126  -0.73895  -0.71066  -0.64701
 Alpha  occ. eigenvalues --   -0.61364  -0.59784  -0.58197  -0.55051  -0.51379
 Alpha  occ. eigenvalues --   -0.51026  -0.46904  -0.45974  -0.43110  -0.31935
 Alpha  occ. eigenvalues --   -0.22768
 Alpha virt. eigenvalues --    0.01000   0.03395   0.25331   0.26643   0.28977
 Alpha virt. eigenvalues --    0.29844   0.31337   0.32571   0.35328   0.35992
 Alpha virt. eigenvalues --    0.38100   0.40281   0.41263   0.42996   0.45378
 Alpha virt. eigenvalues --    0.48116   0.49363   0.54371   0.55502   0.91738
 Alpha virt. eigenvalues --    0.92452   0.96438   0.98365   0.98745   1.00856
 Alpha virt. eigenvalues --    1.01915   1.03019   1.04634   1.05817   1.06344
 Alpha virt. eigenvalues --    1.08817   1.09372   1.11273   1.14618   1.19837
 Alpha virt. eigenvalues --    1.20761   1.22325   1.25767   1.27566   1.29321
 Alpha virt. eigenvalues --    1.32316   1.35398   1.37125   1.39181   1.39574
 Alpha virt. eigenvalues --    1.40462   1.41579   1.44726   1.49867   1.67278
 Alpha virt. eigenvalues --    1.74941   1.99862   2.11483   2.22524   2.44848
 Alpha virt. eigenvalues --    2.56178   2.72308
          Condensed to atoms (all electrons):
              1          2          3          4          5          6
     1  C    5.557788   0.330037  -0.062364   0.228283   0.006874  -0.083808
     2  C    0.330037   5.615563   0.235499  -0.106665  -0.125734   0.006488
     3  C   -0.062364   0.235499   5.574619   0.000070   0.352441   0.009191
     4  C    0.228283  -0.106665   0.000070   5.601328  -0.002168   0.177321
     5  C    0.006874  -0.125734   0.352441  -0.002168   5.693683  -0.100962
     6  C   -0.083808   0.006488   0.009191   0.177321  -0.100962   5.602607
     7  C   -0.018200   0.003133  -0.105868  -0.069240   0.250765   0.182635
     8  H    0.361357  -0.051755   0.003962  -0.061028   0.000497   0.008219
     9  H    0.005202  -0.053259   0.338612   0.000132  -0.055778  -0.000558
    10  H   -0.043559  -0.001124   0.000047   0.386446   0.001113  -0.038323
    11  H    0.003959  -0.000241  -0.000153  -0.041764   0.003100   0.382474
    12  H   -0.064630   0.369104  -0.062990   0.004576   0.003993  -0.000264
    13  H   -0.042776   0.002593  -0.000074   0.382723   0.000241  -0.042747
    14  H   -0.000027   0.004419  -0.060805  -0.000236   0.391068   0.004799
    15  H    0.001167  -0.000022  -0.000401  -0.050810   0.004022   0.372941
    16  H    0.000316  -0.000061   0.004298   0.003463  -0.037041  -0.037708
    17  H    0.007463   0.001741  -0.031495   0.001467  -0.067856  -0.072022
              7          8          9         10         11         12
     1  C   -0.018200   0.361357   0.005202  -0.043559   0.003959  -0.064630
     2  C    0.003133  -0.051755  -0.053259  -0.001124  -0.000241   0.369104
     3  C   -0.105868   0.003962   0.338612   0.000047  -0.000153  -0.062990
     4  C   -0.069240  -0.061028   0.000132   0.386446  -0.041764   0.004576
     5  C    0.250765   0.000497  -0.055778   0.001113   0.003100   0.003993
     6  C    0.182635   0.008219  -0.000558  -0.038323   0.382474  -0.000264
     7  C    5.523192   0.000143   0.010939   0.000258  -0.041560  -0.000114
     8  H    0.000143   0.471664  -0.001601   0.003095  -0.000149  -0.001888
     9  H    0.010939  -0.001601   0.473039   0.000011   0.000003  -0.001109
    10  H    0.000258   0.003095   0.000011   0.475785  -0.004443   0.000035
    11  H   -0.041560  -0.000149   0.000003  -0.004443   0.502301   0.000003
    12  H   -0.000114  -0.001888  -0.001109   0.000035   0.000003   0.552779
    13  H    0.003675  -0.001597   0.000001  -0.023562  -0.000028  -0.000038
    14  H   -0.061316   0.000013  -0.001534  -0.000028  -0.000063  -0.000083
    15  H   -0.047026   0.001048   0.000046   0.002956  -0.020607   0.000003
    16  H    0.390317  -0.000081  -0.000431  -0.000069  -0.004175   0.000002
    17  H    0.399019  -0.001158   0.007259  -0.000047   0.003734   0.000077
             13         14         15         16         17
     1  C   -0.042776  -0.000027   0.001167   0.000316   0.007463
     2  C    0.002593   0.004419  -0.000022  -0.000061   0.001741
     3  C   -0.000074  -0.060805  -0.000401   0.004298  -0.031495
     4  C    0.382723  -0.000236  -0.050810   0.003463   0.001467
     5  C    0.000241   0.391068   0.004022  -0.037041  -0.067856
     6  C   -0.042747   0.004799   0.372941  -0.037708  -0.072022
     7  C    0.003675  -0.061316  -0.047026   0.390317   0.399019
     8  H   -0.001597   0.000013   0.001048  -0.000081  -0.001158
     9  H    0.000001  -0.001534   0.000046  -0.000431   0.007259
    10  H   -0.023562  -0.000028   0.002956  -0.000069  -0.000047
    11  H   -0.000028  -0.000063  -0.020607  -0.004175   0.003734
    12  H   -0.000038  -0.000083   0.000003   0.000002   0.000077
    13  H    0.497000   0.000000  -0.003596  -0.000041   0.000056
    14  H    0.000000   0.568201  -0.000081  -0.005588   0.000160
    15  H   -0.003596  -0.000081   0.556884  -0.000324  -0.000324
    16  H   -0.000041  -0.005588  -0.000324   0.491237  -0.029496
    17  H    0.000056   0.000160  -0.000324  -0.029496   0.613470
 Mulliken atomic charges:
              1
     1  C   -0.187082
     2  C   -0.229716
     3  C   -0.194590
     4  C   -0.453896
     5  C   -0.318256
     6  C   -0.370282
     7  C   -0.420752
     8  H    0.269259
     9  H    0.279024
    10  H    0.241408
    11  H    0.217609
    12  H    0.200543
    13  H    0.228167
    14  H    0.161101
    15  H    0.184125
    16  H    0.225383
    17  H    0.167953
 Sum of Mulliken atomic charges =   0.00000
 Mulliken charges with hydrogens summed into heavy atoms:
              1
     1  C    0.082177
     2  C   -0.029173
     3  C    0.084435
     4  C    0.015680
     5  C   -0.157155
     6  C    0.031452
     7  C   -0.027416
 Sum of Mulliken charges with hydrogens summed into heavy atoms =   0.00000
 Electronic spatial extent (au):  <R**2>=            708.8905
 Charge=              0.0000 electrons
 Dipole moment (field-independent basis, Debye):
    X=              0.7205    Y=             -0.8292    Z=              2.6563  Tot=              2.8745
 Quadrupole moment (field-independent basis, Debye-Ang):
   XX=            -45.8845   YY=            -47.2758   ZZ=            -46.2358
   XY=             -0.0674   XZ=             -2.9911   YZ=              1.8738
 Traceless Quadrupole moment (field-independent basis, Debye-Ang):
   XX=              0.5808   YY=             -0.8104   ZZ=              0.2296
   XY=             -0.0674   XZ=             -2.9911   YZ=              1.8738
 Octapole moment (field-independent basis, Debye-Ang**2):
  XXX=              7.7962  YYY=              3.0131  ZZZ=              7.6851  XYY=              5.7507
  XXY=             -0.8065  XXZ=              3.5683  XZZ=              2.2194  YZZ=             -2.5329
  YYZ=              2.4095  XYZ=             -1.3498
 Hexadecapole moment (field-independent basis, Debye-Ang**3):
 XXXX=           -492.6600 YYYY=           -421.9371 ZZZZ=           -114.5283 XXXY=              7.0343
 XXXZ=            -11.7802 YYYX=             -3.0994 YYYZ=              4.3298 ZZZX=             -8.4116
 ZZZY=              7.0536 XXYY=           -146.1232 XXZZ=            -99.3295 YYZZ=            -94.9228
 XXYZ=              0.7758 YYXZ=             -3.0478 ZZXY=             -1.7627
 N-N= 2.863457001566D+02 E-N=-1.197280201821D+03  KE= 2.679909353799D+02
 Calling FoFJK, ICntrl=      2127 FMM=F ISym2X=0 I1Cent= 0 IOpClX= 0 NMat=1 NMatS=1 NMatT=0.
 ***** Axes restored to original set *****
 -------------------------------------------------------------------
 Center     Atomic                   Forces (Hartrees/Bohr)
 Number     Number              X              Y              Z
 -------------------------------------------------------------------
      1        6           0.084266870    0.069822673    0.050763579
      2        6          -0.057948265   -0.001732274   -0.116028670
      3        6          -0.086700761    0.003087558    0.119111369
      4        6           0.001304655   -0.034848125    0.018578487
      5        6           0.078128259    0.013628207   -0.071717885
      6        6          -0.048959562    0.028942009    0.017359907
      7        6          -0.020631716    0.011969365    0.017187111
      8        1          -0.013450570   -0.061139500   -0.014867545
      9        1           0.062446293   -0.015226313    0.005059524
     10        1          -0.014659951    0.006627601   -0.020919567
     11        1           0.001337487   -0.005010011   -0.023768216
     12        1          -0.008437090    0.015241422    0.014169322
     13        1           0.019143421    0.008567105   -0.002714195
     14        1          -0.017722953   -0.011655671   -0.010905459
     15        1           0.017080595   -0.005401412    0.011466063
     16        1           0.003603178   -0.022859108   -0.012696917
     17        1           0.001200109   -0.000013524    0.019923091
 -------------------------------------------------------------------
 Cartesian Forces:  Max     0.119111369 RMS     0.040375383

 GradGradGradGradGradGradGradGradGradGradGradGradGradGradGradGradGradGrad
 Berny optimization.
 Internal  Forces:  Max     0.065616053 RMS     0.018372539
 Search for a local minimum.
 Step number   1 out of a maximum of   99
 All quantities printed in internal units (Hartrees-Bohrs-Radians)
 Mixed Optimization -- RFO/linear search
 Second derivative matrix not updated -- first step.
     Eigenvalues ---    0.00581   0.00909   0.01075   0.01204   0.02181
     Eigenvalues ---    0.02480   0.03398   0.03528   0.03889   0.04743
     Eigenvalues ---    0.04941   0.05173   0.05842   0.06092   0.07826
     Eigenvalues ---    0.08017   0.08432   0.08867   0.09634   0.09637
     Eigenvalues ---    0.11978   0.12194   0.12695   0.12916   0.14879
     Eigenvalues ---    0.17080   0.21270   0.22860   0.29352   0.29520
     Eigenvalues ---    0.30004   0.30883   0.30889   0.30951   0.31028
     Eigenvalues ---    0.31210   0.31212   0.31222   0.31225   0.31237
     Eigenvalues ---    0.31240   0.31259   0.31263   0.31311   0.31443
     Eigenvalues --- 1000.000001000.000001000.000001000.000001000.00000
     Eigenvalues --- 1000.000001000.000001000.000001000.000001000.00000
     Eigenvalues --- 1000.000001000.000001000.000001000.000001000.00000
     Eigenvalues --- 1000.000001000.000001000.000001000.000001000.00000
     Eigenvalues --- 1000.000001000.000001000.000001000.000001000.00000
     Eigenvalues --- 1000.000001000.000001000.000001000.000001000.00000
     Eigenvalues --- 1000.000001000.000001000.000001000.000001000.00000
     Eigenvalues --- 1000.000001000.000001000.000001000.000001000.00000
     Eigenvalues --- 1000.000001000.000001000.000001000.00000
 RFO step:  Lambda=-1.26224848D-01 EMin= 5.81232329D-03
 Linear search not attempted -- first point.
 Maximum step size (   0.300) exceeded in Quadratic search.
    -- Step size scaled by   0.364
 Iteration  1 RMS(Cart)=  0.03429265 RMS(Int)=  0.00147455
 Iteration  2 RMS(Cart)=  0.00142219 RMS(Int)=  0.00034309
 Iteration  3 RMS(Cart)=  0.00000115 RMS(Int)=  0.00034309
 Iteration  4 RMS(Cart)=  0.00000000 RMS(Int)=  0.00034309
 Variable       Old X    -DE/DX   Delta X   Delta X   Delta X     New X
                                 (Linear)    (Quad)   (Total)
    R1        2.86253  -0.06562   0.00000  -0.05732  -0.05729   2.80524
    R2        2.86217   0.00581   0.00000   0.00479   0.00496   2.86713
    R3        2.11875  -0.02327   0.00000  -0.01923  -0.01923   2.09952
    R4        2.85888  -0.02226   0.00000  -0.01771  -0.01774   2.84114
    R5        2.12257  -0.02163   0.00000  -0.01796  -0.01796   2.10461
    R6        2.86258  -0.06185   0.00000  -0.05107  -0.05122   2.81136
    R7        2.12123  -0.02462   0.00000  -0.02041  -0.02041   2.10082
    R8        2.86081   0.02448   0.00000   0.01834   0.01840   2.87921
    R9        2.12214  -0.02621   0.00000  -0.02175  -0.02175   2.10039
   R10        2.12309  -0.02109   0.00000  -0.01752  -0.01752   2.10557
   R11        2.86210   0.02570   0.00000   0.02457   0.02455   2.88665
   R12        2.12263  -0.02082   0.00000  -0.01728  -0.01728   2.10534
   R13        2.86079   0.01458   0.00000   0.01212   0.01206   2.87285
   R14        2.12285  -0.02430   0.00000  -0.02018  -0.02018   2.10267
   R15        2.12291  -0.02106   0.00000  -0.01750  -0.01750   2.10542
   R16        2.12314  -0.02633   0.00000  -0.02188  -0.02188   2.10127
   R17        2.12222  -0.01961   0.00000  -0.01627  -0.01627   2.10594
    A1        1.96754  -0.00502   0.00000   0.00281   0.00222   1.96976
    A2        1.91647   0.01299   0.00000   0.02533   0.02440   1.94087
    A3        1.91962   0.01614   0.00000   0.03494   0.03440   1.95402
    A4        1.98355   0.02200   0.00000   0.03045   0.02905   2.01260
    A5        1.89791   0.00913   0.00000   0.02782   0.02685   1.92476
    A6        1.89209   0.00743   0.00000   0.02002   0.01872   1.91081
    A7        1.98342   0.02018   0.00000   0.03352   0.03252   2.01595
    A8        1.90869  -0.00785   0.00000  -0.00139  -0.00213   1.90657
    A9        1.90937   0.01193   0.00000   0.02221   0.02175   1.93112
   A10        1.99566   0.01258   0.00000   0.01386   0.01401   2.00967
   A11        1.90726  -0.00531   0.00000  -0.00481  -0.00479   1.90247
   A12        1.90118  -0.00531   0.00000  -0.00791  -0.00810   1.89309
   A13        1.90722  -0.00553   0.00000  -0.00876  -0.00887   1.89835
   A14        1.88620   0.00179   0.00000   0.00706   0.00712   1.89332
   A15        1.86156   0.00118   0.00000  -0.00017  -0.00016   1.86140
   A16        1.96748   0.01402   0.00000   0.02529   0.02453   1.99201
   A17        1.88951  -0.00595   0.00000  -0.00464  -0.00492   1.88459
   A18        1.89672   0.01143   0.00000   0.01762   0.01761   1.91433
   A19        2.01391  -0.02230   0.00000  -0.02290  -0.02320   1.99072
   A20        1.88651   0.00372   0.00000   0.00247   0.00247   1.88898
   A21        1.90338   0.00877   0.00000   0.00896   0.00915   1.91252
   A22        1.90340   0.00610   0.00000   0.00156   0.00151   1.90491
   A23        1.88634   0.00889   0.00000   0.01412   0.01432   1.90065
   A24        1.86489  -0.00416   0.00000  -0.00309  -0.00317   1.86172
   A25        1.99575  -0.00174   0.00000   0.00346   0.00306   1.99881
   A26        1.90126   0.00079   0.00000  -0.00180  -0.00170   1.89957
   A27        1.90724   0.00090   0.00000   0.00107   0.00119   1.90843
   A28        1.88615   0.00454   0.00000   0.00514   0.00531   1.89146
   A29        1.90723  -0.00293   0.00000  -0.00582  -0.00577   1.90146
   A30        1.86144  -0.00152   0.00000  -0.00239  -0.00243   1.85901
    D1       -1.30403   0.02311   0.00000   0.05123   0.05130  -1.25273
    D2        2.87011  -0.00731   0.00000  -0.01409  -0.01463   2.85548
    D3        0.84286   0.04996   0.00000   0.11691   0.11720   0.96006
    D4       -1.26619   0.01954   0.00000   0.05158   0.05127  -1.21491
    D5        1.56996   0.00520   0.00000   0.00848   0.00846   1.57842
    D6       -0.57376   0.00758   0.00000   0.01379   0.01385  -0.55991
    D7       -2.60131   0.01207   0.00000   0.02108   0.02111  -2.58019
    D8       -0.57517  -0.01991   0.00000  -0.05191  -0.05219  -0.62736
    D9       -2.71889  -0.01754   0.00000  -0.04660  -0.04680  -2.76569
   D10        1.53675  -0.01305   0.00000  -0.03931  -0.03954   1.49721
   D11        0.98038  -0.02416   0.00000  -0.06977  -0.07025   0.91013
   D12       -1.15862  -0.04783   0.00000  -0.12084  -0.12108  -1.27970
   D13        3.09269   0.00708   0.00000  -0.00031  -0.00034   3.09236
   D14        0.95369  -0.01659   0.00000  -0.05139  -0.05116   0.90252
   D15       -1.30435   0.03017   0.00000   0.06586   0.06565  -1.23871
   D16        2.88009   0.01111   0.00000   0.03110   0.03096   2.91105
   D17        0.83428   0.04295   0.00000   0.10395   0.10418   0.93845
   D18       -1.26446   0.02389   0.00000   0.06919   0.06949  -1.19497
   D19       -0.68434  -0.00151   0.00000  -0.01067  -0.01070  -0.69504
   D20       -2.81991   0.00301   0.00000   0.00113   0.00116  -2.81875
   D21        1.44193   0.00128   0.00000  -0.00130  -0.00131   1.44062
   D22        1.45940  -0.00376   0.00000  -0.01384  -0.01390   1.44550
   D23       -0.67617   0.00076   0.00000  -0.00204  -0.00204  -0.67821
   D24       -2.69751  -0.00097   0.00000  -0.00447  -0.00452  -2.70202
   D25       -2.80452  -0.00432   0.00000  -0.01485  -0.01496  -2.81948
   D26        1.34309   0.00020   0.00000  -0.00305  -0.00310   1.33999
   D27       -0.67825  -0.00153   0.00000  -0.00548  -0.00558  -0.68382
   D28        1.56995  -0.01033   0.00000  -0.02155  -0.02183   1.54812
   D29       -2.60126  -0.00509   0.00000  -0.01393  -0.01417  -2.61543
   D30       -0.57382  -0.00596   0.00000  -0.01720  -0.01737  -0.59119
   D31       -2.61864  -0.00118   0.00000   0.00058   0.00063  -2.61801
   D32       -0.50667   0.00407   0.00000   0.00820   0.00829  -0.49838
   D33        1.52077   0.00319   0.00000   0.00492   0.00509   1.52586
   D34       -0.68366   0.00658   0.00000   0.00914   0.00917  -0.67449
   D35       -2.80397   0.00341   0.00000   0.00541   0.00541  -2.79856
   D36        1.46011   0.00428   0.00000   0.00853   0.00848   1.46859
   D37        1.44286   0.00052   0.00000  -0.00247  -0.00246   1.44041
   D38       -0.67744  -0.00265   0.00000  -0.00620  -0.00622  -0.68366
   D39       -2.69655  -0.00177   0.00000  -0.00308  -0.00315  -2.69970
   D40       -2.81907   0.00364   0.00000   0.00235   0.00243  -2.81664
   D41        1.34381   0.00047   0.00000  -0.00138  -0.00133   1.34248
   D42       -0.67529   0.00135   0.00000   0.00174   0.00174  -0.67355
         Item               Value     Threshold  Converged?
 Maximum Force            0.065616     0.000450     NO 
 RMS     Force            0.018373     0.000300     NO 
 Maximum Displacement     0.203000     0.001800     NO 
 RMS     Displacement     0.034493     0.001200     NO 
 Predicted change in Energy=-4.330073D-02
 GradGradGradGradGradGradGradGradGradGradGradGradGradGradGradGradGradGrad

                          Input orientation:                          
 ---------------------------------------------------------------------
 Center     Atomic      Atomic             Coordinates (Angstroms)
 Number     Number       Type             X           Y           Z
 ---------------------------------------------------------------------
      1          6           0        0.832431   -2.135555   -0.009295
      2          6           0        2.316788   -2.126993   -0.025460
      3          6           0        2.952460   -0.765778    0.033082
      4          6           0        0.255613   -1.766216    1.344524
      5          6           0        2.488510    0.110731    1.142025
      6          6           0       -0.011918   -0.280523    1.550776
      7          6           0        1.061279    0.628459    0.973588
      8          1           0        0.418051   -1.503697   -0.823791
      9          1           0        2.823147   -0.258623   -0.947717
     10          1           0        0.946273   -2.119092    2.140673
     11          1           0       -0.101280   -0.091347    2.643614
     12          1           0        2.696307   -2.676118   -0.916964
     13          1           0       -0.701225   -2.319980    1.483436
     14          1           0        3.192957    0.970447    1.218571
     15          1           0       -0.994025   -0.011702    1.098555
     16          1           0        0.979736    1.622738    1.464685
     17          1           0        0.853206    0.791848   -0.108972
 ---------------------------------------------------------------------
                    Distance matrix (angstroms):
                    1          2          3          4          5
     1  C    0.000000
     2  C    1.484469   0.000000
     3  C    2.524403   1.503467   0.000000
     4  C    1.517220   2.501092   3.161288   0.000000
     5  C    3.018930   2.529806   1.487707   2.923999   0.000000
     6  C    2.566688   3.364051   3.365472   1.523613   2.563650
     7  C    2.942483   3.188561   2.530814   2.553657   1.527548
     8  H    1.111018   2.151983   2.775245   2.190182   3.279880
     9  H    2.892484   2.144240   1.111708   3.757584   2.148354
    10  H    2.153043   2.563300   3.209079   1.111479   2.889274
    11  H    3.476857   4.137012   4.073704   2.149464   3.000437
    12  H    2.142453   1.113711   2.148860   3.449528   3.471187
    13  H    2.148106   3.379706   4.227113   1.114222   4.024839
    14  H    4.089864   3.451003   2.116057   4.016613   1.114098
    15  H    3.012312   4.086483   4.156754   2.168045   3.484958
    16  H    4.039689   4.250732   3.412644   3.467536   2.160249
    17  H    2.929173   3.266294   2.617870   3.002243   2.168671
                    6          7          8          9         10
     6  C    0.000000
     7  C    1.520245   0.000000
     8  H    2.705475   2.861888   0.000000
     9  H    3.778960   2.753636   2.711098   0.000000
    10  H    2.155561   2.987365   3.073399   4.064745   0.000000
    11  H    1.112686   2.158391   3.779860   4.634427   2.337106
    12  H    4.377567   4.143397   2.563924   2.421016   3.566797
    13  H    2.153848   3.472702   2.691170   4.751936   1.785096
    14  H    3.456372   2.172792   4.241784   2.517970   3.929772
    15  H    1.114138   2.156315   2.813436   4.338087   3.048255
    16  H    2.147835   1.111943   3.914998   3.571746   3.802548
    17  H    2.157123   1.114417   2.443328   2.384880   3.680100
                   11         12         13         14         15
    11  H    0.000000
    12  H    5.213948   0.000000
    13  H    2.583168   4.175162   0.000000
    14  H    3.743013   4.254951   5.105068   0.000000
    15  H    1.786210   4.977950   2.358392   4.302306   0.000000
    16  H    2.344474   5.205674   4.286142   2.320431   2.588664
    17  H    3.044307   4.009571   3.825636   2.696053   2.348632
                   16         17
    16  H    0.000000
    17  H    1.784036   0.000000
 Stoichiometry    C7H10
 Framework group  C1[X(C7H10)]
 Deg. of freedom    45
 Full point group                 C1      NOp   1
 Largest Abelian subgroup         C1      NOp   1
 Largest concise Abelian subgroup C1      NOp   1
                         Standard orientation:                         
 ---------------------------------------------------------------------
 Center     Atomic      Atomic             Coordinates (Angstroms)
 Number     Number       Type             X           Y           Z
 ---------------------------------------------------------------------
      1          6           0       -0.438022   -1.453183    0.400359
      2          6           0       -1.605430   -0.748912   -0.186846
      3          6           0       -1.588572    0.748209   -0.049882
      4          6           0        0.835648   -1.250578   -0.398811
      5          6           0       -0.347578    1.420569   -0.520133
      6          6           0        1.679354   -0.053124    0.020306
      7          6           0        0.868352    1.183268    0.373515
      8          1           0       -0.304013   -1.185878    1.470382
      9          1           0       -1.806991    1.022001    1.005213
     10          1           0        0.575303   -1.145716   -1.474269
     11          1           0        2.374091    0.192130   -0.813516
     12          1           0       -2.552835   -1.150237    0.239433
     13          1           0        1.458490   -2.170113   -0.309297
     14          1           0       -0.553963    2.513113   -0.590620
     15          1           0        2.313385   -0.330410    0.893474
     16          1           0        1.536734    2.069859    0.313214
     17          1           0        0.537285    1.107769    1.434939
 ---------------------------------------------------------------------
 Rotational constants (GHZ):      3.6309187      3.1340346      1.9201657
 Standard basis: 3-21G (6D, 7F)
 There are    83 symmetry adapted basis functions of A   symmetry.
 Integral buffers will be    262144 words long.
 Raffenetti 1 integral format.
 Two-electron integral symmetry is turned on.
    83 basis functions,   135 primitive gaussians,    83 cartesian basis functions
    26 alpha electrons       26 beta electrons
       nuclear repulsion energy       286.8201883265 Hartrees.
 NAtoms=   17 NActive=   17 NUniq=   17 SFac= 7.50D-01 NAtFMM=   80 NAOKFM=F Big=F
 One-electron integrals computed using PRISM.
 NBasis=    83 RedAO= T  NBF=    83
 NBsUse=    83 1.00D-06 NBFU=    83
 Initial guess read from the read-write file.
 B after Tr=     0.000000    0.000000    0.000000
         Rot=    1.000000    0.000000    0.000000    0.000000 Ang=   0.00 deg.
 Initial guess orbital symmetries:
       Occupied  (A) (A) (A) (A) (A) (A) (A) (A) (A) (A) (A) (A)
                 (A) (A) (A) (A) (A) (A) (A) (A) (A) (A) (A) (A)
                 (A) (A)
       Virtual   (A) (A) (A) (A) (A) (A) (A) (A) (A) (A) (A) (A)
                 (A) (A) (A) (A) (A) (A) (A) (A) (A) (A) (A) (A)
                 (A) (A) (A) (A) (A) (A) (A) (A) (A) (A) (A) (A)
                 (A) (A) (A) (A) (A) (A) (A) (A) (A) (A) (A) (A)
                 (A) (A) (A) (A) (A) (A) (A) (A) (A)
 Harris functional with IExCor=  205 diagonalized for initial guess.
 ExpMin= 1.83D-01 ExpMax= 1.72D+02 ExpMxC= 1.72D+02 IAcc=1 IRadAn=         1 AccDes= 0.00D+00
 HarFok:  IExCor=  205 AccDes= 0.00D+00 IRadAn=         1 IDoV= 1
 ScaDFX=  1.000000  1.000000  1.000000  1.000000
 FoFCou: FMM=F IPFlag=           0 FMFlag=      100000 FMFlg1=           0
         NFxFlg=           0 DoJE=T BraDBF=F KetDBF=T FulRan=T
         Omega=  0.000000  0.000000  1.000000  0.000000  0.000000 ICntrl=     500 IOpCl=  0
         NMat0=    1 NMatS0=    1 NMatT0=    0 NMatD0=    1 NMtDS0=    0 NMtDT0=    0
         I1Cent=           4 NGrid=           0.
 Petite list used in FoFCou.
 Requested convergence on RMS density matrix=1.00D-08 within 128 cycles.
 Requested convergence on MAX density matrix=1.00D-06.
 Requested convergence on             energy=1.00D-06.
 No special actions if energy rises.
 Keep R1 ints in memory in canonical form, NReq=6917692.
 SCF Done:  E(RHF) =  -269.012773815     A.U. after   19 cycles
             Convg  =    0.3735D-08             -V/T =  2.0033
 Calling FoFJK, ICntrl=      2127 FMM=F ISym2X=0 I1Cent= 0 IOpClX= 0 NMat=1 NMatS=1 NMatT=0.
 ***** Axes restored to original set *****
 -------------------------------------------------------------------
 Center     Atomic                   Forces (Hartrees/Bohr)
 Number     Number              X              Y              Z
 -------------------------------------------------------------------
      1        6           0.079157399    0.063980683    0.048963094
      2        6          -0.055933584    0.000731423   -0.104542310
      3        6          -0.080633539    0.002377968    0.110063282
      4        6          -0.000795247   -0.024367382    0.012882549
      5        6           0.067334915    0.010342119   -0.072661474
      6        6          -0.038356902    0.021353238    0.013117010
      7        6          -0.017105038    0.004335005    0.022233739
      8        1          -0.013774661   -0.057952432   -0.013074747
      9        1           0.060398383   -0.014347216    0.005346645
     10        1          -0.010867763    0.004312302   -0.015950357
     11        1           0.001084170   -0.004216210   -0.017508287
     12        1          -0.007479439    0.014832621    0.008686509
     13        1           0.013794811    0.007395825   -0.001897576
     14        1          -0.017627289   -0.005918462   -0.009474262
     15        1           0.013945070   -0.004069175    0.007632850
     16        1           0.003150418   -0.017147262   -0.008942911
     17        1           0.003708297   -0.001643047    0.015126247
 -------------------------------------------------------------------
 Cartesian Forces:  Max     0.110063282 RMS     0.036855439

 GradGradGradGradGradGradGradGradGradGradGradGradGradGradGradGradGradGrad
 Berny optimization.
 Using GEDIIS/GDIIS optimizer.
 Internal  Forces:  Max     0.059890374 RMS     0.016336138
 Search for a local minimum.
 Step number   2 out of a maximum of   99
 All quantities printed in internal units (Hartrees-Bohrs-Radians)
 Mixed Optimization -- RFO/linear search
 Update second derivatives using D2CorX and points    1    2
 DE= -4.40D-02 DEPred=-4.33D-02 R= 1.02D+00
 SS=  1.41D+00  RLast= 3.00D-01 DXNew= 5.0454D-01 8.9984D-01
 Trust test= 1.02D+00 RLast= 3.00D-01 DXMaxT set to 5.05D-01
 Use linear search instead of GDIIS.
 Linear search step of   0.600 exceeds DXMaxT=   0.505 but not scaled.
 Quartic linear search produced a step of  2.00000.
 Iteration  1 RMS(Cart)=  0.06359559 RMS(Int)=  0.00674935
 Iteration  2 RMS(Cart)=  0.00668075 RMS(Int)=  0.00195883
 Iteration  3 RMS(Cart)=  0.00006970 RMS(Int)=  0.00195758
 Iteration  4 RMS(Cart)=  0.00000007 RMS(Int)=  0.00195758
 Variable       Old X    -DE/DX   Delta X   Delta X   Delta X     New X
                                 (Linear)    (Quad)   (Total)
    R1        2.80524  -0.05989  -0.11459   0.00000  -0.11435   2.69089
    R2        2.86713   0.00469   0.00991   0.00000   0.01086   2.87800
    R3        2.09952  -0.01824  -0.03846   0.00000  -0.03846   2.06106
    R4        2.84114  -0.01760  -0.03548   0.00000  -0.03560   2.80554
    R5        2.10461  -0.01682  -0.03592   0.00000  -0.03592   2.06869
    R6        2.81136  -0.05727  -0.10244   0.00000  -0.10325   2.70811
    R7        2.10082  -0.01829  -0.04082   0.00000  -0.04082   2.06001
    R8        2.87921   0.01638   0.03680   0.00000   0.03711   2.91633
    R9        2.10039  -0.01955  -0.04350   0.00000  -0.04350   2.05689
   R10        2.10557  -0.01576  -0.03504   0.00000  -0.03504   2.07054
   R11        2.88665   0.01658   0.04911   0.00000   0.04895   2.93560
   R12        2.10534  -0.01636  -0.03457   0.00000  -0.03457   2.07077
   R13        2.87285   0.01053   0.02412   0.00000   0.02369   2.89653
   R14        2.10267  -0.01800  -0.04037   0.00000  -0.04037   2.06231
   R15        2.10542  -0.01637  -0.03499   0.00000  -0.03499   2.07042
   R16        2.10127  -0.01951  -0.04375   0.00000  -0.04375   2.05751
   R17        2.10594  -0.01563  -0.03255   0.00000  -0.03255   2.07340
    A1        1.96976  -0.00472   0.00445   0.00000   0.00103   1.97079
    A2        1.94087   0.01134   0.04880   0.00000   0.04314   1.98400
    A3        1.95402   0.01411   0.06880   0.00000   0.06543   2.01945
    A4        2.01260   0.02046   0.05809   0.00000   0.05002   2.06262
    A5        1.92476   0.00781   0.05370   0.00000   0.04800   1.97276
    A6        1.91081   0.00381   0.03744   0.00000   0.02995   1.94076
    A7        2.01595   0.01472   0.06505   0.00000   0.05957   2.07551
    A8        1.90657  -0.00668  -0.00425   0.00000  -0.00840   1.89817
    A9        1.93112   0.01150   0.04350   0.00000   0.04083   1.97195
   A10        2.00967   0.01122   0.02801   0.00000   0.02910   2.03877
   A11        1.90247  -0.00429  -0.00958   0.00000  -0.00948   1.89299
   A12        1.89309  -0.00482  -0.01619   0.00000  -0.01741   1.87568
   A13        1.89835  -0.00602  -0.01774   0.00000  -0.01837   1.87997
   A14        1.89332   0.00211   0.01424   0.00000   0.01446   1.90778
   A15        1.86140   0.00124  -0.00033   0.00000  -0.00024   1.86116
   A16        1.99201   0.01381   0.04906   0.00000   0.04473   2.03674
   A17        1.88459  -0.00406  -0.00983   0.00000  -0.01143   1.87317
   A18        1.91433   0.00784   0.03522   0.00000   0.03509   1.94942
   A19        1.99072  -0.01944  -0.04640   0.00000  -0.04794   1.94277
   A20        1.88898   0.00278   0.00494   0.00000   0.00481   1.89379
   A21        1.91252   0.00799   0.01829   0.00000   0.01935   1.93187
   A22        1.90491   0.00491   0.00302   0.00000   0.00256   1.90748
   A23        1.90065   0.00780   0.02863   0.00000   0.02979   1.93044
   A24        1.86172  -0.00316  -0.00635   0.00000  -0.00683   1.85489
   A25        1.99881   0.00008   0.00612   0.00000   0.00378   2.00258
   A26        1.89957   0.00056  -0.00339   0.00000  -0.00276   1.89681
   A27        1.90843  -0.00228   0.00238   0.00000   0.00309   1.91151
   A28        1.89146   0.00321   0.01061   0.00000   0.01151   1.90297
   A29        1.90146  -0.00123  -0.01154   0.00000  -0.01111   1.89035
   A30        1.85901  -0.00030  -0.00487   0.00000  -0.00511   1.85390
    D1       -1.25273   0.02128   0.10260   0.00000   0.10271  -1.15002
    D2        2.85548  -0.00621  -0.02925   0.00000  -0.03200   2.82348
    D3        0.96006   0.04578   0.23439   0.00000   0.23551   1.19557
    D4       -1.21491   0.01829   0.10254   0.00000   0.10080  -1.11412
    D5        1.57842   0.00287   0.01692   0.00000   0.01693   1.59535
    D6       -0.55991   0.00615   0.02769   0.00000   0.02805  -0.53187
    D7       -2.58019   0.00961   0.04222   0.00000   0.04246  -2.53773
    D8       -0.62736  -0.02024  -0.10438   0.00000  -0.10595  -0.73331
    D9       -2.76569  -0.01696  -0.09360   0.00000  -0.09483  -2.86053
   D10        1.49721  -0.01350  -0.07907   0.00000  -0.08042   1.41679
   D11        0.91013  -0.02413  -0.14050   0.00000  -0.14277   0.76737
   D12       -1.27970  -0.04538  -0.24216   0.00000  -0.24286  -1.52256
   D13        3.09236   0.00513  -0.00067   0.00000  -0.00123   3.09113
   D14        0.90252  -0.01611  -0.10233   0.00000  -0.10132   0.80120
   D15       -1.23871   0.02904   0.13129   0.00000   0.13000  -1.10871
   D16        2.91105   0.01276   0.06193   0.00000   0.06123   2.97228
   D17        0.93845   0.04125   0.20835   0.00000   0.20952   1.14798
   D18       -1.19497   0.02497   0.13898   0.00000   0.14075  -1.05422
   D19       -0.69504  -0.00181  -0.02139   0.00000  -0.02159  -0.71663
   D20       -2.81875   0.00277   0.00233   0.00000   0.00248  -2.81627
   D21        1.44062   0.00068  -0.00263   0.00000  -0.00271   1.43791
   D22        1.44550  -0.00419  -0.02780   0.00000  -0.02813   1.41737
   D23       -0.67821   0.00039  -0.00408   0.00000  -0.00405  -0.68226
   D24       -2.70202  -0.00170  -0.00903   0.00000  -0.00925  -2.71127
   D25       -2.81948  -0.00481  -0.02992   0.00000  -0.03063  -2.85011
   D26        1.33999  -0.00023  -0.00620   0.00000  -0.00655   1.33344
   D27       -0.68382  -0.00232  -0.01115   0.00000  -0.01175  -0.69557
   D28        1.54812  -0.00947  -0.04365   0.00000  -0.04502   1.50310
   D29       -2.61543  -0.00486  -0.02834   0.00000  -0.02958  -2.64502
   D30       -0.59119  -0.00616  -0.03473   0.00000  -0.03553  -0.62672
   D31       -2.61801   0.00063   0.00126   0.00000   0.00163  -2.61638
   D32       -0.49838   0.00525   0.01657   0.00000   0.01707  -0.48131
   D33        1.52586   0.00394   0.01018   0.00000   0.01112   1.53698
   D34       -0.67449   0.00687   0.01835   0.00000   0.01850  -0.65599
   D35       -2.79856   0.00372   0.01082   0.00000   0.01084  -2.78772
   D36        1.46859   0.00301   0.01696   0.00000   0.01668   1.48527
   D37        1.44041   0.00090  -0.00491   0.00000  -0.00486   1.43555
   D38       -0.68366  -0.00226  -0.01244   0.00000  -0.01251  -0.69618
   D39       -2.69970  -0.00297  -0.00630   0.00000  -0.00667  -2.70637
   D40       -2.81664   0.00415   0.00486   0.00000   0.00529  -2.81135
   D41        1.34248   0.00099  -0.00267   0.00000  -0.00237   1.34011
   D42       -0.67355   0.00028   0.00347   0.00000   0.00347  -0.67008
         Item               Value     Threshold  Converged?
 Maximum Force            0.059890     0.000450     NO 
 RMS     Force            0.016336     0.000300     NO 
 Maximum Displacement     0.372403     0.001800     NO 
 RMS     Displacement     0.067735     0.001200     NO 
 Predicted change in Energy=-7.607205D-02
 GradGradGradGradGradGradGradGradGradGradGradGradGradGradGradGradGradGrad

                          Input orientation:                          
 ---------------------------------------------------------------------
 Center     Atomic      Atomic             Coordinates (Angstroms)
 Number     Number       Type             X           Y           Z
 ---------------------------------------------------------------------
      1          6           0        0.832997   -2.117630   -0.032731
      2          6           0        2.256044   -2.089855   -0.075401
      3          6           0        2.937087   -0.781417    0.092797
      4          6           0        0.273302   -1.746729    1.334240
      5          6           0        2.481552    0.110176    1.118094
      6          6           0       -0.051050   -0.256922    1.572782
      7          6           0        1.031913    0.650981    0.979218
      8          1           0        0.359667   -1.630126   -0.885869
      9          1           0        3.020214   -0.301585   -0.882491
     10          1           0        0.987955   -2.055982    2.094754
     11          1           0       -0.116294   -0.084529    2.648428
     12          1           0        2.670030   -2.645513   -0.922890
     13          1           0       -0.631366   -2.344289    1.492402
     14          1           0        3.212077    0.923659    1.191352
     15          1           0       -1.034395   -0.004137    1.161058
     16          1           0        0.976997    1.628003    1.456580
     17          1           0        0.801584    0.814494   -0.080992
 ---------------------------------------------------------------------
                    Distance matrix (angstroms):
                    1          2          3          4          5
     1  C    0.000000
     2  C    1.423957   0.000000
     3  C    2.495680   1.484628   0.000000
     4  C    1.522969   2.456846   3.093341   0.000000
     5  C    3.000875   2.513050   1.433068   2.893300   0.000000
     6  C    2.611789   3.376215   3.375561   1.543253   2.599149
     7  C    2.954457   3.181651   2.543068   2.539792   1.553451
     8  H    1.090664   2.112926   2.884647   2.224847   3.398075
     9  H    2.967159   2.105531   1.090108   3.814167   2.112355
    10  H    2.134011   2.513716   3.071069   1.088461   2.806588
    11  H    3.496179   4.131412   4.042281   2.154480   3.021363
    12  H    2.108491   1.094704   2.139577   3.412734   3.434379
    13  H    2.126443   3.295433   4.139483   1.095681   3.981804
    14  H    4.050659   3.405867   2.046882   3.973385   1.095805
    15  H    3.062537   4.087302   4.185452   2.185563   3.518067
    16  H    4.033429   4.219644   3.392221   3.449488   2.163806
    17  H    2.932689   3.248188   2.671612   2.973521   2.180863
                    6          7          8          9         10
     6  C    0.000000
     7  C    1.532780   0.000000
     8  H    2.845934   3.022237   0.000000
     9  H    3.932305   2.885600   2.973810   0.000000
    10  H    2.142102   2.928139   3.075746   4.008987   0.000000
    11  H    1.091325   2.155369   3.886730   4.727810   2.326488
    12  H    4.397501   4.143466   2.523917   2.370287   3.504725
    13  H    2.168024   3.464318   2.673639   4.811112   1.751614
    14  H    3.491025   2.207367   4.355790   2.416373   3.826371
    15  H    1.095621   2.175287   2.962627   4.550211   3.028490
    16  H    2.150192   1.088789   4.059996   3.656405   3.738868
    17  H    2.147064   1.097194   2.611376   2.609666   3.606693
                   11         12         13         14         15
    11  H    0.000000
    12  H    5.203513   0.000000
    13  H    2.590022   4.101656   0.000000
    14  H    3.770619   4.183637   5.053926   0.000000
    15  H    1.749755   5.004245   2.397610   4.346751   0.000000
    16  H    2.355536   5.176019   4.285700   2.358395   2.607089
    17  H    3.016700   4.021384   3.808783   2.727866   2.362977
                   16         17
    16  H    0.000000
    17  H    1.748341   0.000000
 Stoichiometry    C7H10
 Framework group  C1[X(C7H10)]
 Deg. of freedom    45
 Full point group                 C1      NOp   1
 Largest Abelian subgroup         C1      NOp   1
 Largest concise Abelian subgroup C1      NOp   1
                         Standard orientation:                         
 ---------------------------------------------------------------------
 Center     Atomic      Atomic             Coordinates (Angstroms)
 Number     Number       Type             X           Y           Z
 ---------------------------------------------------------------------
      1          6           0       -0.512641   -1.430171    0.392070
      2          6           0       -1.610796   -0.688885   -0.129664
      3          6           0       -1.534566    0.793435   -0.097486
      4          6           0        0.762612   -1.252740   -0.421369
      5          6           0       -0.311703    1.432987   -0.483831
      6          6           0        1.713708   -0.118008    0.013864
      7          6           0        0.934974    1.145329    0.397226
      8          1           0       -0.399930   -1.343397    1.473418
      9          1           0       -1.912742    1.143100    0.863271
     10          1           0        0.487384   -1.074394   -1.459247
     11          1           0        2.384041    0.109797   -0.816648
     12          1           0       -2.579532   -1.043456    0.236678
     13          1           0        1.302134   -2.206127   -0.399287
     14          1           0       -0.515007    2.507094   -0.559654
     15          1           0        2.351591   -0.444183    0.842779
     16          1           0        1.603253    2.003410    0.346602
     17          1           0        0.629276    1.056464    1.447220
 ---------------------------------------------------------------------
 Rotational constants (GHZ):      3.6799846      3.1283781      1.9243761
 Standard basis: 3-21G (6D, 7F)
 There are    83 symmetry adapted basis functions of A   symmetry.
 Integral buffers will be    262144 words long.
 Raffenetti 1 integral format.
 Two-electron integral symmetry is turned on.
    83 basis functions,   135 primitive gaussians,    83 cartesian basis functions
    26 alpha electrons       26 beta electrons
       nuclear repulsion energy       288.1904924467 Hartrees.
 NAtoms=   17 NActive=   17 NUniq=   17 SFac= 7.50D-01 NAtFMM=   80 NAOKFM=F Big=F
 One-electron integrals computed using PRISM.
 NBasis=    83 RedAO= T  NBF=    83
 NBsUse=    83 1.00D-06 NBFU=    83
 Initial guess read from the read-write file.
 B after Tr=     0.000000    0.000000    0.000000
         Rot=    1.000000    0.000000    0.000000    0.000000 Ang=   0.00 deg.
 Initial guess orbital symmetries:
       Occupied  (A) (A) (A) (A) (A) (A) (A) (A) (A) (A) (A) (A)
                 (A) (A) (A) (A) (A) (A) (A) (A) (A) (A) (A) (A)
                 (A) (A)
       Virtual   (A) (A) (A) (A) (A) (A) (A) (A) (A) (A) (A) (A)
                 (A) (A) (A) (A) (A) (A) (A) (A) (A) (A) (A) (A)
                 (A) (A) (A) (A) (A) (A) (A) (A) (A) (A) (A) (A)
                 (A) (A) (A) (A) (A) (A) (A) (A) (A) (A) (A) (A)
                 (A) (A) (A) (A) (A) (A) (A) (A) (A)
 Harris functional with IExCor=  205 diagonalized for initial guess.
 ExpMin= 1.83D-01 ExpMax= 1.72D+02 ExpMxC= 1.72D+02 IAcc=1 IRadAn=         1 AccDes= 0.00D+00
 HarFok:  IExCor=  205 AccDes= 0.00D+00 IRadAn=         1 IDoV= 1
 ScaDFX=  1.000000  1.000000  1.000000  1.000000
 FoFCou: FMM=F IPFlag=           0 FMFlag=      100000 FMFlg1=           0
         NFxFlg=           0 DoJE=T BraDBF=F KetDBF=T FulRan=T
         Omega=  0.000000  0.000000  1.000000  0.000000  0.000000 ICntrl=     500 IOpCl=  0
         NMat0=    1 NMatS0=    1 NMatT0=    0 NMatD0=    1 NMtDS0=    0 NMtDT0=    0
         I1Cent=           4 NGrid=           0.
 Petite list used in FoFCou.
 Requested convergence on RMS density matrix=1.00D-08 within 128 cycles.
 Requested convergence on MAX density matrix=1.00D-06.
 Requested convergence on             energy=1.00D-06.
 No special actions if energy rises.
 Keep R1 ints in memory in canonical form, NReq=6917692.
 SCF Done:  E(RHF) =  -269.087811556     A.U. after   17 cycles
             Convg  =    0.5697D-08             -V/T =  2.0023
 Calling FoFJK, ICntrl=      2127 FMM=F ISym2X=0 I1Cent= 0 IOpClX= 0 NMat=1 NMatS=1 NMatT=0.
 ***** Axes restored to original set *****
 -------------------------------------------------------------------
 Center     Atomic                   Forces (Hartrees/Bohr)
 Number     Number              X              Y              Z
 -------------------------------------------------------------------
      1        6           0.061242562    0.055847033    0.047841136
      2        6          -0.041878962    0.000295652   -0.083668719
      3        6          -0.067940294   -0.002935264    0.089509808
      4        6          -0.007879032   -0.005222990    0.001647366
      5        6           0.043534331    0.009426670   -0.066640503
      6        6          -0.016186073    0.006969771    0.002935914
      7        6          -0.010336101   -0.010593544    0.029863875
      8        1          -0.016768545   -0.051983218   -0.011562012
      9        1           0.058286162   -0.011841107    0.004187326
     10        1          -0.001657727   -0.000164499   -0.005478624
     11        1           0.001104232   -0.002863282   -0.003813317
     12        1          -0.004450996    0.012454351   -0.002715161
     13        1           0.002701220    0.003578612    0.000287496
     14        1          -0.015738648    0.006449891   -0.005860128
     15        1           0.006405616   -0.001247035   -0.000272938
     16        1           0.002455011   -0.004335018   -0.000851454
     17        1           0.007107244   -0.003836022    0.004589937
 -------------------------------------------------------------------
 Cartesian Forces:  Max     0.089509808 RMS     0.030001946

 GradGradGradGradGradGradGradGradGradGradGradGradGradGradGradGradGradGrad
 Berny optimization.
 Using GEDIIS/GDIIS optimizer.
 Internal  Forces:  Max     0.041036432 RMS     0.012202862
 Search for a local minimum.
 Step number   3 out of a maximum of   99
 All quantities printed in internal units (Hartrees-Bohrs-Radians)
 Mixed Optimization -- RFO/linear search
 Update second derivatives using D2CorX and points    2    3
 Use linear search instead of GDIIS.
 Linear search step of   1.199 exceeds DXMaxT=   0.505 scaled by   0.842
 Quartic linear search produced a step of  1.68389.
 Iteration  1 RMS(Cart)=  0.08639752 RMS(Int)=  0.02997148
 Iteration  2 RMS(Cart)=  0.02884609 RMS(Int)=  0.00554489
 Iteration  3 RMS(Cart)=  0.00144960 RMS(Int)=  0.00536928
 Iteration  4 RMS(Cart)=  0.00000270 RMS(Int)=  0.00536928
 Iteration  5 RMS(Cart)=  0.00000001 RMS(Int)=  0.00536928
 Variable       Old X    -DE/DX   Delta X   Delta X   Delta X     New X
                                 (Linear)    (Quad)   (Total)
    R1        2.69089  -0.03754  -0.19255   0.00000  -0.19169   2.49920
    R2        2.87800   0.00316   0.01829   0.00000   0.02088   2.89888
    R3        2.06106  -0.00691  -0.06477   0.00000  -0.06477   1.99629
    R4        2.80554  -0.00539  -0.05995   0.00000  -0.06022   2.74532
    R5        2.06869  -0.00590  -0.06048   0.00000  -0.06048   2.00821
    R6        2.70811  -0.03858  -0.17387   0.00000  -0.17585   2.53225
    R7        2.06001  -0.00451  -0.06873   0.00000  -0.06873   1.99127
    R8        2.91633   0.00208   0.06250   0.00000   0.06325   2.97957
    R9        2.05689  -0.00487  -0.07325   0.00000  -0.07325   1.98365
   R10        2.07054  -0.00414  -0.05900   0.00000  -0.05900   2.01154
   R11        2.93560   0.00116   0.08242   0.00000   0.08186   3.01745
   R12        2.07077  -0.00610  -0.05821   0.00000  -0.05821   2.01256
   R13        2.89653   0.00381   0.03989   0.00000   0.03838   2.93492
   R14        2.06231  -0.00428  -0.06797   0.00000  -0.06797   1.99433
   R15        2.07042  -0.00593  -0.05892   0.00000  -0.05892   2.01150
   R16        2.05751  -0.00439  -0.07368   0.00000  -0.07368   1.98384
   R17        2.07340  -0.00650  -0.05481   0.00000  -0.05481   2.01859
    A1        1.97079  -0.00232   0.00173   0.00000  -0.00778   1.96302
    A2        1.98400   0.00913   0.07264   0.00000   0.05512   2.03912
    A3        2.01945   0.00879   0.11017   0.00000   0.09935   2.11880
    A4        2.06262   0.01404   0.08423   0.00000   0.06263   2.12525
    A5        1.97276   0.00706   0.08083   0.00000   0.06501   2.03777
    A6        1.94076  -0.00049   0.05043   0.00000   0.03031   1.97107
    A7        2.07551   0.00570   0.10030   0.00000   0.08680   2.16231
    A8        1.89817  -0.00282  -0.01415   0.00000  -0.02538   1.87279
    A9        1.97195   0.00995   0.06875   0.00000   0.06128   2.03323
   A10        2.03877   0.00783   0.04901   0.00000   0.05333   2.09210
   A11        1.89299  -0.00215  -0.01596   0.00000  -0.01565   1.87735
   A12        1.87568  -0.00361  -0.02932   0.00000  -0.03369   1.84199
   A13        1.87997  -0.00634  -0.03094   0.00000  -0.03290   1.84707
   A14        1.90778   0.00260   0.02435   0.00000   0.02452   1.93230
   A15        1.86116   0.00126  -0.00040   0.00000   0.00000   1.86116
   A16        2.03674   0.01285   0.07532   0.00000   0.06382   2.10056
   A17        1.87317   0.00114  -0.01924   0.00000  -0.02398   1.84918
   A18        1.94942   0.00008   0.05909   0.00000   0.05870   2.00812
   A19        1.94277  -0.01185  -0.08073   0.00000  -0.08406   1.85872
   A20        1.89379   0.00058   0.00810   0.00000   0.00712   1.90092
   A21        1.93187   0.00539   0.03259   0.00000   0.03552   1.96740
   A22        1.90748   0.00196   0.00432   0.00000   0.00213   1.90960
   A23        1.93044   0.00511   0.05016   0.00000   0.05360   1.98404
   A24        1.85489  -0.00073  -0.01150   0.00000  -0.01276   1.84213
   A25        2.00258   0.00312   0.00636   0.00000  -0.00056   2.00202
   A26        1.89681  -0.00021  -0.00465   0.00000  -0.00256   1.89425
   A27        1.91151  -0.00708   0.00520   0.00000   0.00706   1.91857
   A28        1.90297   0.00096   0.01939   0.00000   0.02146   1.92444
   A29        1.89035   0.00148  -0.01870   0.00000  -0.01680   1.87355
   A30        1.85390   0.00167  -0.00860   0.00000  -0.00930   1.84460
    D1       -1.15002   0.01782   0.17296   0.00000   0.17219  -0.97783
    D2        2.82348  -0.00421  -0.05389   0.00000  -0.05999   2.76349
    D3        1.19557   0.03791   0.39658   0.00000   0.39667   1.59224
    D4       -1.11412   0.01588   0.16973   0.00000   0.16449  -0.94963
    D5        1.59535  -0.00041   0.02851   0.00000   0.02905   1.62440
    D6       -0.53187   0.00417   0.04723   0.00000   0.04828  -0.48358
    D7       -2.53773   0.00564   0.07150   0.00000   0.07216  -2.46557
    D8       -0.73331  -0.02095  -0.17840   0.00000  -0.18287  -0.91618
    D9       -2.86053  -0.01637  -0.15969   0.00000  -0.16364  -3.02416
   D10        1.41679  -0.01490  -0.13542   0.00000  -0.13975   1.27704
   D11        0.76737  -0.02392  -0.24040   0.00000  -0.24473   0.52264
   D12       -1.52256  -0.04104  -0.40895   0.00000  -0.40787  -1.93043
   D13        3.09113   0.00089  -0.00207   0.00000  -0.00596   3.08517
   D14        0.80120  -0.01622  -0.17061   0.00000  -0.16910   0.63210
   D15       -1.10871   0.02521   0.21891   0.00000   0.21546  -0.89324
   D16        2.97228   0.01446   0.10311   0.00000   0.10208   3.07436
   D17        1.14798   0.03719   0.35281   0.00000   0.35555   1.50353
   D18       -1.05422   0.02643   0.23702   0.00000   0.24216  -0.81206
   D19       -0.71663  -0.00262  -0.03636   0.00000  -0.03767  -0.75430
   D20       -2.81627   0.00188   0.00418   0.00000   0.00427  -2.81200
   D21        1.43791  -0.00060  -0.00457   0.00000  -0.00502   1.43289
   D22        1.41737  -0.00506  -0.04737   0.00000  -0.04870   1.36867
   D23       -0.68226  -0.00056  -0.00683   0.00000  -0.00676  -0.68903
   D24       -2.71127  -0.00304  -0.01557   0.00000  -0.01605  -2.72732
   D25       -2.85011  -0.00565  -0.05158   0.00000  -0.05425  -2.90436
   D26        1.33344  -0.00115  -0.01103   0.00000  -0.01231   1.32112
   D27       -0.69557  -0.00363  -0.01978   0.00000  -0.02160  -0.71717
   D28        1.50310  -0.00835  -0.07581   0.00000  -0.07818   1.42492
   D29       -2.64502  -0.00510  -0.04982   0.00000  -0.05252  -2.69754
   D30       -0.62672  -0.00708  -0.05983   0.00000  -0.06121  -0.68792
   D31       -2.61638   0.00380   0.00275   0.00000   0.00445  -2.61193
   D32       -0.48131   0.00706   0.02874   0.00000   0.03011  -0.45120
   D33        1.53698   0.00508   0.01873   0.00000   0.02143   1.55841
   D34       -0.65599   0.00654   0.03114   0.00000   0.03145  -0.62455
   D35       -2.78772   0.00390   0.01825   0.00000   0.01861  -2.76911
   D36        1.48527   0.00061   0.02808   0.00000   0.02756   1.51282
   D37        1.43555   0.00110  -0.00818   0.00000  -0.00814   1.42741
   D38       -0.69618  -0.00154  -0.02107   0.00000  -0.02098  -0.71715
   D39       -2.70637  -0.00482  -0.01124   0.00000  -0.01203  -2.71840
   D40       -2.81135   0.00435   0.00890   0.00000   0.00979  -2.80156
   D41        1.34011   0.00171  -0.00399   0.00000  -0.00305   1.33706
   D42       -0.67008  -0.00157   0.00584   0.00000   0.00590  -0.66419
         Item               Value     Threshold  Converged?
 Maximum Force            0.041036     0.000450     NO 
 RMS     Force            0.012203     0.000300     NO 
 Maximum Displacement     0.503740     0.001800     NO 
 RMS     Displacement     0.111392     0.001200     NO 
 Predicted change in Energy=-8.430847D-02
 GradGradGradGradGradGradGradGradGradGradGradGradGradGradGradGradGradGrad

                          Input orientation:                          
 ---------------------------------------------------------------------
 Center     Atomic      Atomic             Coordinates (Angstroms)
 Number     Number       Type             X           Y           Z
 ---------------------------------------------------------------------
      1          6           0        0.841303   -2.079934   -0.084727
      2          6           0        2.160347   -2.016291   -0.156392
      3          6           0        2.886665   -0.802601    0.175169
      4          6           0        0.310840   -1.705545    1.305114
      5          6           0        2.464678    0.099381    1.071820
      6          6           0       -0.113239   -0.217667    1.609141
      7          6           0        0.983318    0.689339    0.987052
      8          1           0        0.303955   -1.839786   -0.961963
      9          1           0        3.286782   -0.421765   -0.722178
     10          1           0        1.059479   -1.938232    2.003160
     11          1           0       -0.134983   -0.074957    2.654578
     12          1           0        2.625226   -2.579195   -0.928632
     13          1           0       -0.497341   -2.372866    1.491142
     14          1           0        3.237589    0.828984    1.139011
     15          1           0       -1.096884    0.006996    1.270023
     16          1           0        0.974273    1.635171    1.442468
     17          1           0        0.716303    0.857570   -0.033455
 ---------------------------------------------------------------------
                    Distance matrix (angstroms):
                    1          2          3          4          5
     1  C    0.000000
     2  C    1.322521   0.000000
     3  C    2.425414   1.452761   0.000000
     4  C    1.534019   2.377654   2.954143   0.000000
[...]
 .8687669,-0.7681486,-1.9441972,-0.837033,0.7951769,3.8815089,2.866556,
 -5.227116,-1.5201557,-0.3513197,-1.3934004,1.0746388,2.1725984,-0.5369
 394,-1.846917,-15.3602052,-1.1927475,-2.8543824,0.3988988,-2.397978,-1
 .3377297,-2.1784177,1.5434687,-5.4767799,-6.005919,1.7724678,2.4352819
 ,1.5910399,-3.3148064,0.1933996,-1.4068085,0.4450596,3.3008888,-1.8665
 114,0.1001235,-2.5037819,0.5670092,-2.0680784,0.1556284,-1.1802806,-0.
 69225,1.7101051,0.3964695,0.068619,-0.4741191,-2.8078159,-0.0797245,-2
 .6108133,-2.3677629,0.2740745,-1.1751836,11.794588,-0.8367456,2.473120
 5,-1.2192784,0.6426784,-0.5278812,1.0262257,-1.6656749,4.4788416,4.424
 8786,2.4478269,-2.3213384,-1.4531281,2.6925022,-0.3128914,-1.4429906,-
 1.8104984,-1.8596921,2.9889519,0.2786505,1.9045654,-0.9999194,3.758060
 3,-0.0893581,1.6389712,0.0400097,-0.9233009,-5.0639208,-0.1228969,0.67
 95474,0.8934539,-1.4405343,-0.550426,2.4267274,2.5845723,1.7732936,-4.
 8761689,-0.9231472,-2.0732814,1.061069,-1.505602,-0.4629436,-1.9159524
 ,2.6942764,-1.6165593,2.4363013,-3.494239,-2.708127,-1.994914,-1.81862
 5,-1.2586039,-1.9190568,-1.6358875,-2.2625012,-3.5915337,-1.2573391,-2
 .4344345,-0.9061071,-1.0870922,-1.5644759,-1.8593104,-2.4104977,-2.419
 4713,-3.0393068,11.1710778,-1.60284,0.8875186,-1.033432,0.1343766,0.21
 13566,-1.5207161,2.5784214,-0.0609497,0.2197556,-0.6261494,-0.6796076,
 -0.0229127,-0.8356741,-1.873917,1.3296092,-0.4845491,0.1909405,2.65834
 34,-1.2995859,0.9310552,1.7278121,-0.8649288,2.073359,-0.2568368,0.914
 4572,-1.4495955,-0.6529037,1.7824062,-0.6634783,0.5252094,-0.6321322,0
 .9416606,1.5969035,-1.8215068,3.9832227,-1.231119,0.7631445,0.3165643,
 1.9330001,-0.182528,-0.1384026,0.2978168,-0.1317119,0.3368352,-0.26254
 44,2.1101313,0.9345817,0.273519,-0.2199115,0.4417729,-1.6352971,1.2668
 831,9.2983665,1.732466,0.0934388,1.2484052,-2.0422187,0.6073042,1.5704
 643,0.3055395,0.1251622,-3.157475,0.6459207,-2.2888545,-1.7017281,-1.3
 446218,1.2658099,-0.5073259,2.8940496,-2.8214198,-8.9700761,-5.4876656
 ,-3.327342,-2.1210668,2.0269935,0.7526774,-0.4706575,-1.5479111,-3.251
 8549,-3.7979496,0.6694381,1.5682914,-0.6901798,1.2156496,0.6915905,0.9
 496567,-1.6663953,-1.9245142,1.2334714,4.2570027,3.1279617,1.5358323,2
 .3477068,1.2580094,1.0743695,1.9209814,2.4710587,3.3721579,0.9491383,2
 .0112835,1.0588223,2.1508642,1.1760129,1.9948727,2.3660607,1.8430093,2
 .2441396,-8.8431376,2.2112409,-0.619598,-0.7027287,0.0407645,-0.126693
 1,1.3348381,-2.1703807,1.0760259,-0.101606,-0.5522321,0.3293816,-1.380
 1287,0.295733,-0.6596412,-2.1546379,0.8919358,-0.0493342,-0.125716,1.8
 586092,-0.7501386,0.8681082,-0.1334048,-0.5455431,0.0308372,-0.8201698
 ,9.3618105,-0.0189849,2.0641433,0.4903164,0.4419605,-0.1329376,2.03780
 76,-0.6747424,2.6990987,1.2012036,-1.3692311,0.7942135,-0.4603885,-1.5
 54329,0.6867124,-0.8513473,-0.4583144,-0.6200387,1.2200679,0.4976604,-
 1.6849991,0.4037917,-0.9775488,0.7823644,-1.1930201,-1.5060962,1.88343
 72,-5.5023848|HyperPolar=7.4690402,-14.6165339,-19.6442659,30.5479293,
 4.7717398,9.7883089,13.8302414,-1.016369,-10.6052658,-8.7709434|PG=C01
  [X(C7H10)]|NImag=0||0.80602736,0.28457198,0.39211781,-0.11863160,0.10
 423887,0.58859657,-0.48826873,-0.15248659,0.16633519,0.77272192,-0.143
 43767,-0.14183873,0.03155647,0.20490888,0.36117603,0.16901165,0.035208
 45,-0.19543583,-0.21614986,0.13110534,0.66098337,-0.02989039,-0.028421
 32,-0.02020974,-0.16740015,-0.04295524,-0.03754821,0.73408434,-0.02513
 519,0.00032404,-0.00624506,-0.04502817,-0.13740283,-0.04969772,-0.1348
 6773,0.64262368,-0.00161272,0.00777693,0.01675456,-0.03348087,-0.05290
 021,-0.14290158,-0.03846490,0.32380513,0.41777028,-0.10771087,-0.00446
 350,0.02410126,-0.00692213,0.00702796,0.03530382,-0.00293206,0.0036596
 8,-0.00008490,0.66343009,-0.00491030,-0.09653780,-0.01535496,-0.003228
 09,0.01283814,0.00899149,0.00319877,-0.00794731,0.00437018,0.05952031,
 0.50249876,0.02752404,-0.02280937,-0.18902082,0.01261145,0.00054729,-0
 .01510813,-0.00151483,-0.00055769,-0.00383447,0.02054277,-0.04267514,0
 .54233369,-0.00491066,0.00016118,-0.00147445,0.01970291,-0.01966989,-0
 .01560618,-0.18878535,0.12194123,0.07344967,0.00234003,-0.00046127,-0.
 00182592,0.62563510,0.00506306,-0.00175214,-0.00001323,0.00017606,-0.0
 2160205,-0.02280876,0.12924407,-0.41243037,-0.22623935,-0.00338802,0.0
 0084015,-0.00023871,-0.06544728,0.70504575,0.00712950,0.00015208,-0.00
 431813,-0.00601618,-0.03101854,-0.01090617,0.07707245,-0.22026314,-0.2
 2396410,0.00106131,-0.00024658,0.00319281,0.03783329,0.35591620,0.4556
 4799,-0.00264020,0.00829564,0.00371535,0.00147598,-0.00083609,0.003082
 85,0.00041770,-0.00174752,-0.00258528,-0.09462943,0.01934794,-0.000759
 20,-0.03087865,-0.02161913,0.01658805,0.59802539,0.00222357,-0.0071252
 3,-0.01230254,-0.00246774,-0.00097867,0.00212234,0.00243659,-0.0024217
 7,0.00108451,0.02395158,-0.15720142,-0.00540241,0.00118867,0.01005178,
 -0.00822967,-0.03595228,0.46931247,0.00897025,-0.03826835,-0.00794352,
 -0.00199504,0.00001610,-0.00050589,0.00110354,-0.00024107,0.00199812,0
 .00744404,-0.01285585,-0.08983289,0.00224727,-0.00473920,0.00312562,0.
 04992981,0.00951306,0.63735609,0.00285395,-0.00129467,-0.00127496,-0.0
 0346595,-0.00314853,0.00183731,-0.01186447,0.01445043,0.00206278,0.002
 26931,0.00210096,-0.00159780,-0.18847867,0.02767078,-0.00543855,-0.116
 63394,-0.02570699,0.01956289,0.48679013,-0.00132903,0.00026204,0.00118
 799,0.00178639,-0.00452485,0.00480569,0.03336757,-0.00418774,-0.003309
 84,-0.02658674,-0.02939916,0.01480814,0.03310103,-0.11168685,-0.007325
 89,-0.02765542,-0.11438456,0.02386946,-0.03251391,0.60593316,0.0000364
 8,-0.00270503,0.00325937,0.00083155,0.00372555,-0.00671511,0.02004196,
 -0.00649927,0.00685924,-0.00476532,-0.00526975,0.00272843,-0.01155403,
 -0.00654498,-0.09308370,0.03132863,0.02520555,-0.11054331,0.03726342,0
 .07236593,0.61537536,-0.17461529,-0.10862669,-0.09439024,-0.01637257,-
 0.02432164,-0.02045342,0.00004289,-0.00496269,0.00583377,0.00992068,0.
 00494996,0.00919162,-0.00092806,0.00007554,-0.00093677,-0.00072604,0.0
 0057996,0.00086780,-0.00027956,-0.00031916,0.00044079,0.18346308,-0.11
 237058,-0.15405978,-0.10021683,-0.00701902,0.00110510,-0.01138199,-0.0
 0746494,0.01037687,-0.00273916,-0.00790042,0.00216876,-0.00147863,0.00
 137688,0.00069028,0.00156387,0.00061993,-0.00064429,-0.00015349,0.0004
 0845,0.00054968,-0.00044954,0.12751367,0.14780268,-0.10148728,-0.10199
 785,-0.15910433,0.01326512,0.00861390,0.01258919,0.00483789,-0.0035428
 8,0.00102071,-0.01768878,-0.01776755,-0.01249227,-0.00003365,-0.000146
 05,-0.00044227,-0.00015453,0.00107187,-0.00340706,-0.00017143,0.000184
 39,0.00003303,0.10115402,0.11140075,0.16363430,-0.00056854,-0.00133153
 ,-0.00373230,-0.01737367,0.00486648,0.00337540,-0.34973996,0.06782234,
 0.00700767,-0.00010510,0.00075392,-0.00024796,-0.00883568,-0.00002063,
 -0.00245672,0.00044114,-0.00043187,0.00008555,0.00214755,0.00181726,0.
 00025060,-0.00035744,-0.00104730,0.00067490,0.37357285,-0.00016339,-0.
 00179778,-0.00363601,-0.02571429,0.00622518,-0.00028967,0.06173205,-0.
 07196639,-0.01101607,-0.00015991,0.00065998,0.00007271,0.03452511,-0.0
 0300700,-0.00370085,0.00157820,-0.00098898,0.00048298,0.00052160,0.001
 57510,-0.00910693,-0.00014797,-0.00156642,0.00077600,-0.07156335,0.073
 21905,-0.00306725,-0.00267486,-0.00161976,-0.01601444,0.00626745,0.007
 77658,0.00229099,-0.01454075,-0.06225243,0.00015341,0.00045037,-0.0011
 0413,0.02185572,-0.00626183,0.00901832,-0.00212325,0.00069917,0.000186
 89,-0.00230341,-0.00850007,0.00639427,-0.00030374,-0.00097382,0.000665
 38,-0.00539897,0.02108710,0.04589556,0.01012178,-0.00475656,0.00686762
 ,-0.00162298,-0.00186129,0.00185188,0.00038991,0.00109405,0.00284983,-
 0.21919415,0.04930563,-0.12805314,0.00027023,-0.00008932,-0.00097566,-
 0.00809381,0.00374917,-0.00519764,0.00014508,0.00005823,0.00040509,-0.
 00039795,0.00124777,0.00070451,-0.00016680,-0.00035694,0.00039413,0.24
 085165,-0.00338683,0.00085121,-0.00968877,-0.00177798,-0.00032496,0.00
 069652,-0.00060382,0.00155253,0.00111884,0.04668921,-0.06952923,0.0440
 3664,-0.00008831,-0.00051002,-0.00091628,0.03356028,-0.01542763,0.0217
 6444,0.00047652,0.00116039,-0.00011883,0.00024193,-0.00023632,-0.00101
 030,-0.00005355,-0.00016990,0.00025702,-0.05848067,0.08110221,-0.02544
 804,0.00576473,-0.03098341,-0.00129245,-0.00233874,-0.00013777,0.00004
 911,0.00098558,0.00003606,-0.12911633,0.04548620,-0.15840469,0.0001657
 9,0.00087056,0.00052150,0.00553011,-0.00392961,0.00318611,-0.00017785,
 0.00027610,-0.00047611,0.00154268,-0.00020762,-0.00387336,0.00007416,0
 .00006149,0.00012497,0.13868826,-0.03972801,0.17970818,0.00066719,0.00
 227510,0.00009010,-0.00006629,-0.00035978,0.00007024,-0.00007320,0.000
 47945,-0.00020877,-0.00062978,0.00353108,0.01043205,0.00114606,0.00031
 301,-0.00079700,-0.06226549,-0.00308805,-0.01235441,0.00148859,0.00361
 303,0.02576841,-0.00026486,0.00024460,0.00044235,-0.00005564,-0.000024
 38,0.00005670,0.00056738,-0.00009808,0.00078294,0.06112213,0.00033211,
 -0.00675168,0.00158115,0.00007254,0.00013189,-0.00079380,-0.00044587,-
 0.00016305,0.00007263,0.00206827,-0.01083914,-0.04005466,0.00120568,0.
 00002814,0.00001416,-0.00173559,-0.06368774,-0.04555773,0.00040114,0.0
 0083630,0.02690456,0.00018242,-0.00004525,-0.00120589,0.00009533,0.000
 14145,0.00009084,0.00012012,0.00226555,-0.00034438,0.00221546,0.077411
 78,0.00096944,-0.00124584,0.00114733,-0.00062661,-0.00029044,-0.000261
 46,0.00042733,0.00024356,0.00049032,-0.00154238,0.00057442,-0.00508534
 ,0.00030249,-0.00034657,0.00003622,-0.01075647,-0.04572241,-0.32850750
 ,-0.00193171,-0.00213576,-0.01634254,0.00007235,-0.00013300,0.00003035
 ,0.00008369,-0.00005465,0.00008542,0.00067149,0.00002038,0.00137540,0.
 01133477,0.04862582,0.35853752,-0.00361045,0.00947290,0.03647238,-0.09
 385137,0.01617603,0.07538287,0.01259902,-0.00691748,-0.02058297,-0.001
 86997,-0.00701537,0.00103722,-0.00313003,-0.00274956,-0.00214445,0.000
 61555,-0.00051240,-0.00095342,-0.00050406,0.00081237,-0.00045057,-0.00
 099417,0.00358001,-0.00178893,0.00036979,0.00072652,0.00095114,-0.0002
 3431,-0.00013333,0.00062803,0.00000020,-0.00000516,-0.00009234,0.09052
 859,-0.00909529,0.00996084,0.01144419,0.02304994,-0.07737157,-0.087130
 32,0.00504983,-0.00638458,-0.02254274,-0.00618569,0.00852861,-0.003217
 80,-0.00423055,0.00084438,-0.00047764,-0.00063674,-0.00008712,0.002501
 89,0.00066790,0.00036633,-0.00034129,0.00407588,-0.00619131,0.00334008
 ,-0.00068151,0.00005923,0.00033326,0.00073447,-0.00017983,-0.00126126,
 -0.00008119,0.00051514,0.00019284,-0.01250049,0.07182154,0.00346568,-0
 .00746197,-0.00917623,0.07967673,-0.08464260,-0.31278638,0.00893114,-0
 .00410838,-0.00958771,0.00384543,-0.00320014,0.00346038,-0.00263848,-0
 .00101812,-0.00170096,0.00022984,-0.00024715,-0.00089003,-0.00027659,0
 .00070115,-0.00041081,-0.00169790,0.00414181,-0.00018443,-0.00080140,-
 0.00000534,0.00031630,-0.00057041,-0.00001917,0.00087750,0.00004724,-0
 .00024182,-0.00013927,-0.09096484,0.09717647,0.33038958,-0.00804134,-0
 .00433488,-0.00018484,0.00052713,0.00030072,0.00199410,0.00035539,-0.0
 0074173,0.00018743,-0.23495813,-0.12564054,0.05419243,-0.00059738,0.00
 018117,0.00075133,0.00817151,0.00868080,-0.00363356,0.00005822,0.00257
 611,0.00032703,0.00100946,0.00086399,0.00014563,-0.00003843,0.00006551
 ,-0.00006151,-0.02336857,-0.01714543,0.00802618,-0.00008743,-0.0009076
 7,-0.00016090,-0.00036973,-0.00023860,0.00025991,0.25546984,0.00880443
 ,0.00437330,-0.00458475,0.00032769,0.00004149,-0.00142353,-0.00012926,
 0.00030477,-0.00022194,-0.12603099,-0.14548686,0.03993803,0.00138482,0
 .00001760,-0.00044545,-0.03049492,-0.02288288,0.01042791,0.00247683,-0
 .00648632,-0.00310995,0.00047664,0.00090697,0.00043985,-0.00006721,0.0
 0003899,0.00010349,0.00747279,0.00612058,-0.00375620,0.00000551,0.0004
 9138,-0.00081824,0.00027690,0.00001091,-0.00016749,0.13647105,0.161980
 56,0.03407236,0.02373115,-0.01038271,0.00042686,-0.00292130,-0.0072282
 3,-0.00100249,-0.00056947,-0.00025427,0.04984017,0.03661783,-0.0773240
 2,0.00015258,-0.00015241,0.00054928,-0.00437258,-0.00280075,0.00160062
 ,-0.00011886,-0.00069603,0.00021125,-0.00056896,0.00019958,0.00148551,
 0.00008164,0.00008815,0.00004830,-0.01849844,-0.01517101,0.00698248,-0
 .00026306,0.00054810,-0.00014281,0.00181251,-0.00025607,-0.00035915,-0
 .06136862,-0.03876520,0.08415267,0.00040104,0.00033642,0.00078308,-0.0
 0004829,0.00292184,-0.00082817,0.01156715,0.01167603,0.00836812,-0.000
 01396,0.00051315,-0.00017812,-0.19619565,-0.10925842,-0.10724741,-0.00
 254061,0.00167195,-0.00106896,-0.01506470,-0.01745472,-0.01720554,0.00
 021273,-0.00014883,-0.00001903,0.00141884,-0.00114438,0.00123508,0.000
 01848,-0.00016290,-0.00009103,-0.00021061,-0.00021608,0.00043970,0.000
 10107,-0.00002173,0.00020376,0.00002191,-0.00008318,-0.00001277,0.2033
 2029,0.00104030,0.00050342,0.00071739,0.00485497,0.00220793,-0.0091907
 0,-0.02361624,-0.01133231,-0.01911647,-0.00007952,0.00036698,0.0000845
 5,-0.10390208,-0.15363818,-0.09479056,0.00095421,-0.00092487,0.0009298
 9,0.01065084,0.00783097,0.00293559,0.00014931,-0.00031194,0.00018224,-
 0.00024168,-0.00292514,0.00507094,-0.00013245,-0.00004940,-0.00002526,
 -0.00024229,0.00002468,0.00008301,-0.00156311,-0.00148387,-0.00093331,
 -0.00005899,0.00001020,0.00006535,0.11067306,0.15812621,-0.00121013,-0
 .00026505,-0.00158388,0.00047818,-0.00762090,0.00927929,-0.01556181,-0
 .01494812,-0.00291228,0.00036042,-0.00073130,-0.00004979,-0.10103735,-
 0.09518347,-0.13792240,0.00032323,0.00061390,-0.00131319,0.00137766,-0
 .00126148,0.00683094,-0.00071366,0.00068553,-0.00024231,0.00110654,0.0
 0532538,-0.00586230,0.00002186,0.00013158,0.00022661,0.00022035,0.0000
 9845,-0.00007190,0.00055206,0.00059306,0.00012415,-0.00005868,-0.00001
 363,0.00005960,0.11405718,0.11270441,0.13342948,-0.00011758,-0.0000313
 0,0.00073533,0.00042518,-0.00004714,0.00030449,-0.00051022,-0.00012505
 ,-0.00060227,-0.00563214,-0.00046712,-0.00280575,-0.00083368,-0.003936
 41,0.00300407,-0.29611543,0.05079798,-0.08357089,-0.02405440,0.0044503
 0,-0.00726875,-0.00003842,0.00026599,0.00021030,0.00000296,0.00038844,
 -0.00030572,0.00079088,0.00098760,0.00043825,-0.00030557,-0.00021134,-
 0.00127247,0.00008337,0.00004087,0.00013956,0.00151197,0.00028668,-0.0
 0014293,-0.00064731,0.00016346,0.00001085,0.32421168,-0.00042085,0.001
 03536,0.00098552,-0.00009022,-0.00017511,-0.00055038,-0.00046993,0.000
 32959,0.00001725,0.03556463,-0.01057941,0.01444873,-0.00110651,-0.0034
 0803,0.00192121,0.04989237,-0.06807827,0.01533171,-0.02603143,0.004011
 98,-0.00489225,0.00019287,-0.00037513,-0.00025394,0.00003395,0.0003082
 9,-0.00012869,0.00167128,-0.00705585,-0.00171901,-0.00688311,0.0012201
 7,-0.00181423,0.00011504,0.00008394,0.00000081,-0.00040738,0.00184593,
 0.00042466,-0.00061490,0.00037342,-0.00032179,-0.05268420,0.07873767,-
 0.00063695,0.00067191,0.00029710,0.00019555,0.00057924,0.00000464,0.00
 004618,-0.00060334,-0.00001543,0.00704954,-0.00058741,0.00218885,0.001
 64446,0.00355842,-0.00069430,-0.08541364,0.01488857,-0.09022805,0.0220
 7583,-0.00261075,0.00349464,0.00001604,-0.00017574,0.00015580,-0.00001
 495,-0.00018909,0.00006447,0.00091073,-0.00109429,0.00090454,-0.037466
 47,0.00787590,-0.01211180,0.00000720,-0.00011416,0.00000350,-0.0001560
 0,0.00108346,0.00034656,0.00083718,-0.00026724,-0.00000568,0.09096684,
 -0.02206517,0.09408198,-0.00009260,0.00024142,0.00086894,-0.00025455,-
 0.00052609,-0.00090144,-0.00757180,0.00068440,-0.00129538,-0.00325583,
 -0.00233612,0.00187196,-0.00437319,0.03927946,0.01820406,0.00226863,-0
 .02344721,-0.00932319,-0.06074997,0.01730695,0.00475102,0.00008976,0.0
 0001296,-0.00005219,-0.00074693,0.00083910,0.00143543,0.00007182,-0.00
 012539,0.00011839,0.00137948,0.00065034,-0.00036580,0.00011946,0.00005
 403,0.00004548,0.00034694,-0.00126180,-0.00002566,0.00156195,-0.000348
 84,-0.00001536,0.00001758,0.00076163,-0.00065347,0.07071172,-0.0002291
 8,0.00056392,0.00055622,-0.00002376,0.00027508,0.00032463,0.00252322,0
 .00032690,0.00071798,-0.00423734,-0.00123539,0.00226293,-0.00194071,-0
 .00954929,-0.00513739,0.00216041,-0.02212486,-0.00981956,0.02185545,-0
 .29184453,-0.10283119,-0.00006307,-0.00003822,-0.00005169,0.00018751,-
 0.00032752,-0.00046355,0.00012519,0.00015767,0.00001506,0.00097111,0.0
 0116273,0.00069937,0.00006411,-0.00003552,-0.00008529,0.00038090,-0.00
 144124,-0.00012333,0.00024645,0.00140089,0.00050990,-0.00071036,0.0000
 8599,-0.00011658,-0.02061486,0.31951327,0.00106890,-0.00072003,-0.0005
 0190,-0.00031747,-0.00082288,0.00038581,-0.00074164,-0.00028896,0.0005
 8598,0.00340534,0.00253407,-0.00172723,-0.00079473,0.00425658,-0.00013
 568,-0.00120034,0.02161730,0.00674919,0.00684893,-0.10508704,-0.105190
 51,-0.00004363,0.00000380,0.00004006,-0.00004302,-0.00019286,0.0003559
 5,-0.00009153,-0.00015176,0.00001488,-0.00093037,-0.00000374,0.0011644
 1,-0.00003090,0.00009456,-0.00003512,-0.00024512,0.00118871,0.00015432
 ,0.00058538,0.00046929,0.00043958,-0.00024729,-0.00073270,0.00015413,-
 0.01079956,0.11359021,0.11140149,0.00039531,0.00039241,-0.00007111,0.0
 0079355,0.00096146,-0.00072733,-0.00068879,-0.00228203,-0.00084121,-0.
 00010656,0.00083710,-0.00042082,-0.02114732,0.00450563,-0.03563133,0.0
 0310769,-0.00367374,0.02788596,-0.07465712,0.00696973,-0.08020078,0.00
 023575,-0.00018318,-0.00003890,0.00003504,-0.00110192,0.00120571,-0.00
 014864,0.00010075,0.00008182,-0.00241216,-0.00382169,0.00244742,0.0001
 4704,-0.00000113,0.00010486,-0.00001137,0.00008403,-0.00001175,-0.0039
 0233,0.00169905,0.00008865,0.00121113,0.00047676,0.00059192,0.00047753
 ,-0.00069507,0.00357706,0.09667126,-0.00155714,-0.00012880,-0.00022563
 ,0.00265939,0.00021793,0.00001241,0.00142225,-0.00160204,-0.00087767,0
 .00055048,0.00085433,0.00023539,0.00196200,0.00006587,0.01298445,0.004
 26872,-0.00240598,0.02679781,0.00701461,-0.06001195,0.01073184,0.00000
 303,-0.00013168,-0.00003294,-0.00013815,0.00052184,-0.00081607,0.00009
 853,0.00027300,-0.00014964,-0.00287147,-0.00274233,0.00212173,0.000173
 03,-0.00045711,0.00011056,-0.00004504,0.00015462,-0.00021925,0.0010662
 5,-0.00017900,-0.00031646,0.00083163,0.00163946,-0.00083372,-0.0111699
 8,0.00311012,-0.03575456,-0.00426815,0.06082172,-0.00015432,0.00060422
 ,0.00001559,0.00207229,0.00014428,0.00096767,0.00024304,-0.00292843,0.
 00020702,0.00009019,-0.00033588,0.00007963,-0.00268645,-0.00090908,0.0
 0107596,-0.00336259,0.00181826,-0.02103118,-0.07773765,0.01272802,-0.3
 1242443,-0.00001076,-0.00008550,0.00009168,-0.00004483,0.00029767,-0.0
 0009379,0.00002142,-0.00012700,-0.00008289,0.00277494,0.00239039,-0.00
 020434,0.00016500,-0.00033507,0.00009870,-0.00001481,0.00012495,0.0001
 0060,0.00014155,0.00108088,-0.00042591,0.00040638,-0.00065174,0.001359
 06,-0.00386321,-0.00004773,-0.01385536,0.08195984,-0.01376825,0.344121
 99||0.00006368,0.00003024,-0.00003672,-0.00004528,-0.00001937,0.000022
 32,0.00000324,-0.00006068,-0.00005688,-0.00000241,0.00001816,0.0000159
 9,-0.00001139,0.00005537,0.00003897,0.00001379,-0.00002176,-0.00000024
 ,0.00000022,-0.00000147,-0.00000097,0.00000991,0.00000088,0.00000378,0
 .00001021,-0.00001255,0.00000138,-0.00000777,0.00000221,-0.00000441,-0
 .00000207,0.00000076,-0.00000319,0.00000214,0.00000344,0.00000739,-0.0
 0000898,0.00000805,0.00001009,0.00000214,0.00000187,-0.00000096,-0.000
 01753,-0.00000889,0.00000194,-0.00000584,-0.00000541,0.00000530,-0.000
 00407,0.00000914,-0.00000379|||@


 GOORD'S AXIOM:  A MEETING IS AN EVENT AT WHICH
 THE MINUTES ARE KEPT AND THE HOURS ARE LOST.
 Job cpu time:  0 days  0 hours  0 minutes 11.0 seconds.
 File lengths (MBytes):  RWF=     21 Int=      0 D2E=      0 Chk=      2 Scr=      1
 Normal termination of Gaussian 09 at Tue Dec 10 11:30:41 2024.
