 Entering Link 1 = C:\G09W\l1.exe PID=     22696.
  
 Copyright (c) 1988,1990,1992,1993,1995,1998,2003,2009, Gaussian, Inc.
                  All Rights Reserved.
  
 This is part of the Gaussian(R) 09 program.  It is based on
 the Gaussian(R) 03 system (copyright 2003, Gaussian, Inc.),
 the Gaussian(R) 98 system (copyright 1998, Gaussian, Inc.),
 the Gaussian(R) 94 system (copyright 1995, Gaussian, Inc.),
 the Gaussian 92(TM) system (copyright 1992, Gaussian, Inc.),
 the Gaussian 90(TM) system (copyright 1990, Gaussian, Inc.),
 the Gaussian 88(TM) system (copyright 1988, Gaussian, Inc.),
 the Gaussian 86(TM) system (copyright 1986, Carnegie Mellon
 University), and the Gaussian 82(TM) system (copyright 1983,
 Carnegie Mellon University). Gaussian is a federally registered
 trademark of Gaussian, Inc.
  
 This software contains proprietary and confidential information,
 including trade secrets, belonging to Gaussian, Inc.
  
 This software is provided under written license and may be
 used, copied, transmitted, or stored only in accord with that
 written license.
  
 The following legend is applicable only to US Government
 contracts under FAR:
  
                    RESTRICTED RIGHTS LEGEND
  
 Use, reproduction and disclosure by the US Government is
 subject to restrictions as set forth in subparagraphs (a)
 and (c) of the Commercial Computer Software - Restricted
 Rights clause in FAR 52.227-19.
  
 Gaussian, Inc.
 340 Quinnipiac St., Bldg. 40, Wallingford CT 06492
  
  
 ---------------------------------------------------------------
 Warning -- This program may not be used in any manner that
 competes with the business of Gaussian, Inc. or will provide
 assistance to any competitor of Gaussian, Inc.  The licensee
 of this program is prohibited from giving any competitor of
 Gaussian, Inc. access to this program.  By using this program,
 the user acknowledges that Gaussian, Inc. is engaged in the
 business of creating and licensing software in the field of
 computational chemistry and represents and warrants to the
 licensee that it is not a competitor of Gaussian, Inc. and that
 it will not use this program in any manner prohibited above.
 ---------------------------------------------------------------
  

 Cite this work as:
 Gaussian 09, Revision A.02,
 M. J. Frisch, G. W. Trucks, H. B. Schlegel, G. E. Scuseria, 
 M. A. Robb, J. R. Cheeseman, G. Scalmani, V. Barone, B. Mennucci, 
 G. A. Petersson, H. Nakatsuji, M. Caricato, X. Li, H. P. Hratchian, 
 A. F. Izmaylov, J. Bloino, G. Zheng, J. L. Sonnenberg, M. Hada, 
 M. Ehara, K. Toyota, R. Fukuda, J. Hasegawa, M. Ishida, T. Nakajima, 
 Y. Honda, O. Kitao, H. Nakai, T. Vreven, J. A. Montgomery, Jr., 
 J. E. Peralta, F. Ogliaro, M. Bearpark, J. J. Heyd, E. Brothers, 
 K. N. Kudin, V. N. Staroverov, R. Kobayashi, J. Normand, 
 K. Raghavachari, A. Rendell, J. C. Burant, S. S. Iyengar, J. Tomasi, 
 M. Cossi, N. Rega, J. M. Millam, M. Klene, J. E. Knox, J. B. Cross, 
 V. Bakken, C. Adamo, J. Jaramillo, R. Gomperts, R. E. Stratmann, 
 O. Yazyev, A. J. Austin, R. Cammi, C. Pomelli, J. W. Ochterski, 
 R. L. Martin, K. Morokuma, V. G. Zakrzewski, G. A. Voth, 
 P. Salvador, J. J. Dannenberg, S. Dapprich, A. D. Daniels, 
 O. Farkas, J. B. Foresman, J. V. Ortiz, J. Cioslowski, 
 and D. J. Fox, Gaussian, Inc., Wallingford CT, 2009.
 
 ******************************************
 Gaussian 09:  IA32W-G09RevA.02 11-Jun-2009
                10-Dec-2024 
 ******************************************
 %chk=C:\G09W\ethoxide\cycloctadiene.chk
 -------------------------------------
 # opt freq hf/3-21g geom=connectivity
 -------------------------------------
 1/18=20,19=15,38=1,57=2/1,3;
 2/9=110,12=2,17=6,18=5,40=1/2;
 3/5=5,11=9,16=1,25=1,30=1,71=1/1,2,3;
 4//1;
 5/5=2,38=5/2;
 6/7=2,8=2,9=2,10=2,28=1/1;
 7//1,2,3,16;
 1/18=20,19=15/3(2);
 2/9=110/2;
 99//99;
 2/9=110/2;
 3/5=5,11=9,16=1,25=1,30=1,71=1/1,2,3;
 4/5=5,16=3/1;
 5/5=2,38=5/2;
 7//1,2,3,16;
 1/18=20,19=15/3(-5);
 2/9=110/2;
 6/7=2,8=2,9=2,10=2,19=2,28=1/1;
 99/9=1/99;
 -------------------
 Title Card Required
 -------------------
 Symbolic Z-matrix:
 Charge =  0 Multiplicity = 1
 C                     0.33624  -4.49861  -0.00041 
 C                     1.85035  -4.49861  -0.00041 
 C                     0.96427  -0.99217  -0.00041 
 C                     2.50475  -3.41589   0.83764 
 C                     2.47839  -0.99216  -0.00032 
 C                     3.16964  -2.33929   0. 
 H                     2.2113   -4.43316  -1.06224 
 H                     1.75394  -2.95729   1.53179 
 H                     0.60328  -1.05758   1.06141 
 H                     2.81772  -0.41212   0.90097 
 H                    -0.00315  -5.07871  -0.90164 
 H                     0.6261    0.01073  -0.38042 
 H                     2.83941  -0.42564  -0.90178 
 H                     4.21613  -2.18231   0.38051 
 H                     3.27674  -2.69026  -1.0618 
 C                    -0.35502  -3.15149  -0.00076 
 H                    -1.40152  -3.30846  -0.38122 
 C                     0.30987  -2.0749   -0.83843 
 H                     1.06068  -2.53351  -1.53257 
 H                    -0.4733   -1.5963   -1.48643 
 

 GradGradGradGradGradGradGradGradGradGradGradGradGradGradGradGradGradGrad
 Berny optimization.
 Initialization pass.
                           ----------------------------
                           !    Initial Parameters    !
                           ! (Angstroms and Degrees)  !
 --------------------------                            --------------------------
 ! Name  Definition              Value          Derivative Info.                !
 --------------------------------------------------------------------------------
 ! R1    R(1,2)                  1.5141         estimate D2E/DX2                !
 ! R2    R(1,11)                 1.1242         estimate D2E/DX2                !
 ! R3    R(1,16)                 1.5141         estimate D2E/DX2                !
 ! R4    R(2,4)                  1.5175         estimate D2E/DX2                !
 ! R5    R(2,7)                  1.1234         estimate D2E/DX2                !
 ! R6    R(3,5)                  1.5141         estimate D2E/DX2                !
 ! R7    R(3,9)                  1.1234         estimate D2E/DX2                !
 ! R8    R(3,12)                 1.1245         estimate D2E/DX2                !
 ! R9    R(3,18)                 1.5175         estimate D2E/DX2                !
 ! R10   R(4,6)                  1.5175         estimate D2E/DX2                !
 ! R11   R(4,8)                  1.1207         estimate D2E/DX2                !
 ! R12   R(5,6)                  1.5141         estimate D2E/DX2                !
 ! R13   R(5,10)                 1.1242         estimate D2E/DX2                !
 ! R14   R(5,13)                 1.1242         estimate D2E/DX2                !
 ! R15   R(6,14)                 1.1245         estimate D2E/DX2                !
 ! R16   R(6,15)                 1.1234         estimate D2E/DX2                !
 ! R17   R(16,17)                1.1245         estimate D2E/DX2                !
 ! R18   R(16,18)                1.5175         estimate D2E/DX2                !
 ! R19   R(18,19)                1.1207         estimate D2E/DX2                !
 ! R20   R(18,20)                1.1235         estimate D2E/DX2                !
 ! A1    A(2,1,11)             107.5703         estimate D2E/DX2                !
 ! A2    A(2,1,16)             117.1639         estimate D2E/DX2                !
 ! A3    A(11,1,16)            108.7282         estimate D2E/DX2                !
 ! A4    A(1,2,4)              115.5459         estimate D2E/DX2                !
 ! A5    A(1,2,7)              108.7412         estimate D2E/DX2                !
 ! A6    A(4,2,7)              109.9903         estimate D2E/DX2                !
 ! A7    A(5,3,9)              108.7405         estimate D2E/DX2                !
 ! A8    A(5,3,12)             107.5018         estimate D2E/DX2                !
 ! A9    A(5,3,18)             115.5481         estimate D2E/DX2                !
 ! A10   A(9,3,12)             105.9444         estimate D2E/DX2                !
 ! A11   A(9,3,18)             109.9892         estimate D2E/DX2                !
 ! A12   A(12,3,18)            108.6639         estimate D2E/DX2                !
 ! A13   A(2,4,6)              112.973          estimate D2E/DX2                !
 ! A14   A(2,4,8)              110.1893         estimate D2E/DX2                !
 ! A15   A(6,4,8)              110.19           estimate D2E/DX2                !
 ! A16   A(3,5,6)              117.1638         estimate D2E/DX2                !
 ! A17   A(3,5,10)             107.5707         estimate D2E/DX2                !
 ! A18   A(3,5,13)             108.7283         estimate D2E/DX2                !
 ! A19   A(6,5,10)             108.7274         estimate D2E/DX2                !
 ! A20   A(6,5,13)             107.5721         estimate D2E/DX2                !
 ! A21   A(10,5,13)            106.6127         estimate D2E/DX2                !
 ! A22   A(4,6,5)              115.5498         estimate D2E/DX2                !
 ! A23   A(4,6,14)             108.6629         estimate D2E/DX2                !
 ! A24   A(4,6,15)             109.9888         estimate D2E/DX2                !
 ! A25   A(5,6,14)             107.5014         estimate D2E/DX2                !
 ! A26   A(5,6,15)             108.7402         estimate D2E/DX2                !
 ! A27   A(14,6,15)            105.9447         estimate D2E/DX2                !
 ! A28   A(1,16,17)            107.5022         estimate D2E/DX2                !
 ! A29   A(1,16,18)            115.55           estimate D2E/DX2                !
 ! A30   A(17,16,18)           108.6639         estimate D2E/DX2                !
 ! A31   A(3,18,16)            112.9727         estimate D2E/DX2                !
 ! A32   A(3,18,19)            110.1893         estimate D2E/DX2                !
 ! A33   A(3,18,20)            108.3713         estimate D2E/DX2                !
 ! A34   A(16,18,19)           110.1897         estimate D2E/DX2                !
 ! A35   A(16,18,20)           108.3711         estimate D2E/DX2                !
 ! A36   A(19,18,20)           106.5045         estimate D2E/DX2                !
 ! D1    D(11,1,2,4)           160.509          estimate D2E/DX2                !
 ! D2    D(11,1,2,7)            36.2953         estimate D2E/DX2                !
 ! D3    D(16,1,2,4)            37.7555         estimate D2E/DX2                !
 ! D4    D(16,1,2,7)           -86.4581         estimate D2E/DX2                !
 ! D5    D(2,1,16,17)          159.2191         estimate D2E/DX2                !
 ! D6    D(2,1,16,18)           37.7077         estimate D2E/DX2                !
 ! D7    D(11,1,16,17)          37.0625         estimate D2E/DX2                !
 ! D8    D(11,1,16,18)         -84.4489         estimate D2E/DX2                !
 ! D9    D(1,2,4,6)           -108.9559         estimate D2E/DX2                !
 ! D10   D(1,2,4,8)             14.7747         estimate D2E/DX2                !
 ! D11   D(7,2,4,6)             14.6041         estimate D2E/DX2                !
 ! D12   D(7,2,4,8)            138.3347         estimate D2E/DX2                !
 ! D13   D(9,3,5,6)             86.4629         estimate D2E/DX2                !
 ! D14   D(9,3,5,10)           -36.2898         estimate D2E/DX2                !
 ! D15   D(9,3,5,13)          -151.3781         estimate D2E/DX2                !
 ! D16   D(12,3,5,6)          -159.2602         estimate D2E/DX2                !
 ! D17   D(12,3,5,10)           77.9871         estimate D2E/DX2                !
 ! D18   D(12,3,5,13)          -37.1012         estimate D2E/DX2                !
 ! D19   D(18,3,5,6)           -37.7504         estimate D2E/DX2                !
 ! D20   D(18,3,5,10)         -160.503          estimate D2E/DX2                !
 ! D21   D(18,3,5,13)           84.4086         estimate D2E/DX2                !
 ! D22   D(5,3,18,16)          108.953          estimate D2E/DX2                !
 ! D23   D(5,3,18,19)          -14.777          estimate D2E/DX2                !
 ! D24   D(5,3,18,20)         -130.9487         estimate D2E/DX2                !
 ! D25   D(9,3,18,16)          -14.6068         estimate D2E/DX2                !
 ! D26   D(9,3,18,19)         -138.3368         estimate D2E/DX2                !
 ! D27   D(9,3,18,20)          105.4915         estimate D2E/DX2                !
 ! D28   D(12,3,18,16)        -130.1638         estimate D2E/DX2                !
 ! D29   D(12,3,18,19)         106.1062         estimate D2E/DX2                !
 ! D30   D(12,3,18,20)         -10.0655         estimate D2E/DX2                !
 ! D31   D(2,4,6,5)            108.9291         estimate D2E/DX2                !
 ! D32   D(2,4,6,14)          -130.1878         estimate D2E/DX2                !
 ! D33   D(2,4,6,15)           -14.6312         estimate D2E/DX2                !
 ! D34   D(8,4,6,5)            -14.8011         estimate D2E/DX2                !
 ! D35   D(8,4,6,14)           106.082          estimate D2E/DX2                !
 ! D36   D(8,4,6,15)          -138.3614         estimate D2E/DX2                !
 ! D37   D(3,5,6,4)            -37.7111         estimate D2E/DX2                !
 ! D38   D(3,5,6,14)          -159.2205         estimate D2E/DX2                !
 ! D39   D(3,5,6,15)            86.5026         estimate D2E/DX2                !
 ! D40   D(10,5,6,4)            84.4454         estimate D2E/DX2                !
 ! D41   D(10,5,6,14)          -37.064          estimate D2E/DX2                !
 ! D42   D(10,5,6,15)         -151.3409         estimate D2E/DX2                !
 ! D43   D(13,5,6,4)          -160.466          estimate D2E/DX2                !
 ! D44   D(13,5,6,14)           78.0246         estimate D2E/DX2                !
 ! D45   D(13,5,6,15)          -36.2523         estimate D2E/DX2                !
 ! D46   D(1,16,18,3)         -108.929          estimate D2E/DX2                !
 ! D47   D(1,16,18,19)          14.8008         estimate D2E/DX2                !
 ! D48   D(1,16,18,20)         130.9726         estimate D2E/DX2                !
 ! D49   D(17,16,18,3)         130.186          estimate D2E/DX2                !
 ! D50   D(17,16,18,19)       -106.0842         estimate D2E/DX2                !
 ! D51   D(17,16,18,20)         10.0875         estimate D2E/DX2                !
 --------------------------------------------------------------------------------
 Trust Radius=3.00D-01 FncErr=1.00D-07 GrdErr=1.00D-07
 Number of steps in this run= 117 maximum allowed number of steps= 120.
 GradGradGradGradGradGradGradGradGradGradGradGradGradGradGradGradGradGrad

                          Input orientation:                          
 ---------------------------------------------------------------------
 Center     Atomic      Atomic             Coordinates (Angstroms)
 Number     Number       Type             X           Y           Z
 ---------------------------------------------------------------------
      1          6           0        0.336236   -4.498608   -0.000405
      2          6           0        1.850353   -4.498608   -0.000405
      3          6           0        0.964272   -0.992168   -0.000405
      4          6           0        2.504755   -3.415890    0.837640
      5          6           0        2.478387   -0.992163   -0.000321
      6          6           0        3.169643   -2.339286    0.000000
      7          1           0        2.211299   -4.433163   -1.062237
      8          1           0        1.753936   -2.957295    1.531794
      9          1           0        0.603280   -1.057581    1.061414
     10          1           0        2.817725   -0.412119    0.900967
     11          1           0       -0.003147   -5.078713   -0.901643
     12          1           0        0.626104    0.010725   -0.380423
     13          1           0        2.839406   -0.425636   -0.901778
     14          1           0        4.216131   -2.182308    0.380510
     15          1           0        3.276739   -2.690256   -1.061796
     16          6           0       -0.355016   -3.151488   -0.000757
     17          1           0       -1.401519   -3.308464   -0.381222
     18          6           0        0.309868   -2.074899   -0.838427
     19          1           0        1.060685   -2.533512   -1.532568
     20          1           0       -0.473296   -1.596305   -1.486432
 ---------------------------------------------------------------------
                    Distance matrix (angstroms):
                    1          2          3          4          5
     1  C    0.000000
     2  C    1.514117   0.000000
     3  C    3.562240   3.616664   0.000000
     4  C    2.564580   1.517511   2.991628   0.000000
     5  C    4.109011   3.562244   1.514115   2.564630   0.000000
     6  C    3.562424   2.530454   2.584258   1.517496   1.514125
     7  H    2.155837   1.123411   3.810907   2.174970   3.611022
     8  H    2.594832   2.175448   2.613987   1.120664   2.594985
     9  H    3.611016   3.810947   1.123412   3.037648   2.155826
    10  H    4.865147   4.295075   2.141078   3.020695   1.124243
    11  H    1.124248   2.141078   4.295111   3.475580   4.865212
    12  H    4.534592   4.687994   1.124529   4.093250   2.140377
    13  H    4.864919   4.287167   2.156284   3.475512   1.124239
    14  H    4.534747   3.332754   3.483693   2.158588   2.140381
    15  H    3.611543   2.535994   3.059012   2.174939   2.155833
    16  C    1.514121   2.584257   2.530451   2.991840   3.562423
    17  H    2.140387   3.483696   3.332749   4.093427   4.534755
    18  C    2.564633   2.991612   1.517508   3.070014   2.564608
    19  H    2.594986   2.613944   2.175445   2.912356   2.594883
    20  H    3.359610   4.003871   2.154033   4.192969   3.359456
                    6          7          8          9         10
     6  C    0.000000
     7  H    2.535960   0.000000
     8  H    2.175443   3.019332   0.000000
     9  H    3.058690   4.300020   2.270282   0.000000
    10  H    2.156284   4.515608   2.829755   2.312170   0.000000
    11  H    4.287659   2.312206   3.675510   4.515623   5.743154
    12  H    3.483800   4.767164   3.706443   1.794629   2.573705
    13  H    2.141102   4.059623   3.675570   3.041996   1.802926
    14  H    1.124530   3.341739   2.826387   3.844650   2.315164
    15  H    1.123415   2.042765   3.019428   3.784314   3.041881
    16  C    3.617028   3.058660   2.614212   2.535939   4.287602
    17  H    4.688300   3.844630   3.706730   3.341690   5.275874
    18  C    2.991851   3.037588   2.912371   2.174953   3.475583
    19  H    2.614229   2.270198   3.170253   3.019327   3.675539
    20  H    4.004061   3.928709   3.990306   2.817935   4.234712
                   11         12         13         14         15
    11  H    0.000000
    12  H    5.154610   0.000000
    13  H    5.452635   2.315368   0.000000
    14  H    5.275925   4.275127   2.574011   0.000000
    15  H    4.060545   3.845183   2.312006   1.794635   0.000000
    16  C    2.156294   3.332617   4.294932   4.688290   3.811585
    17  H    2.315181   3.889508   5.154330   5.779832   4.767752
    18  C    3.020741   2.158611   3.020372   4.093438   3.038237
    19  H    2.829815   2.826560   2.829291   3.706757   2.270923
    20  H    3.562328   2.239304   3.561781   5.081299   3.929352
                   16         17         18         19         20
    16  C    0.000000
    17  H    1.124528   0.000000
    18  C    1.517500   2.158602   0.000000
    19  H    2.175442   2.826411   1.120662   0.000000
    20  H    2.154023   2.239325   1.123525   1.798217   0.000000
 Stoichiometry    C8H12
 Framework group  C1[X(C8H12)]
 Deg. of freedom    54
 Full point group                 C1      NOp   1
 Largest Abelian subgroup         C1      NOp   1
 Largest concise Abelian subgroup C1      NOp   1
                         Standard orientation:                         
 ---------------------------------------------------------------------
 Center     Atomic      Atomic             Coordinates (Angstroms)
 Number     Number       Type             X           Y           Z
 ---------------------------------------------------------------------
      1          6           0        2.129975   -0.267686   -0.132346
      2          6           0        1.231319   -1.448499    0.168732
      3          6           0       -1.057834    1.315112   -0.281266
      4          6           0       -0.073779   -1.491499   -0.604386
      5          6           0       -1.956498    0.134286    0.019729
      6          6           0       -1.285285   -1.201125    0.262061
      7          1           0        1.024690   -1.472585    1.272714
      8          1           0       -0.035641   -0.777878   -1.467623
      9          1           0       -0.851202    1.339255   -1.385247
     10          1           0       -2.674622    0.026847   -0.838569
     11          1           0        2.848172   -0.160258    0.725899
     12          1           0       -1.640749    2.249906   -0.055576
     13          1           0       -2.574535    0.373288    0.927926
     14          1           0       -2.053972   -2.002842    0.086169
     15          1           0       -1.006943   -1.273383    1.348047
     16          6           0        1.458764    1.067727   -0.374647
     17          1           0        2.227456    1.869447   -0.198802
     18          6           0        0.247274    1.358101    0.491829
     19          1           0        0.209151    0.644468    1.355055
     20          1           0        0.364571    2.385233    0.931774
 ---------------------------------------------------------------------
 Rotational constants (GHZ):      2.8798903      2.1163537      1.3768837
 Standard basis: 3-21G (6D, 7F)
 There are    96 symmetry adapted basis functions of A   symmetry.
 Integral buffers will be    262144 words long.
 Raffenetti 1 integral format.
 Two-electron integral symmetry is turned on.
    96 basis functions,   156 primitive gaussians,    96 cartesian basis functions
    30 alpha electrons       30 beta electrons
       nuclear repulsion energy       364.3590252943 Hartrees.
 NAtoms=   20 NActive=   20 NUniq=   20 SFac= 7.50D-01 NAtFMM=   80 NAOKFM=F Big=F
 One-electron integrals computed using PRISM.
 NBasis=    96 RedAO= T  NBF=    96
 NBsUse=    96 1.00D-06 NBFU=    96
 Harris functional with IExCor=  205 diagonalized for initial guess.
 ExpMin= 1.83D-01 ExpMax= 1.72D+02 ExpMxC= 1.72D+02 IAcc=1 IRadAn=         1 AccDes= 0.00D+00
 HarFok:  IExCor=  205 AccDes= 0.00D+00 IRadAn=         1 IDoV= 1
 ScaDFX=  1.000000  1.000000  1.000000  1.000000
 FoFCou: FMM=F IPFlag=           0 FMFlag=      100000 FMFlg1=           0
         NFxFlg=           0 DoJE=T BraDBF=F KetDBF=T FulRan=T
         Omega=  0.000000  0.000000  1.000000  0.000000  0.000000 ICntrl=     500 IOpCl=  0
         NMat0=    1 NMatS0=    1 NMatT0=    0 NMatD0=    1 NMtDS0=    0 NMtDT0=    0
         I1Cent=           4 NGrid=           0.
 Petite list used in FoFCou.
 Initial guess orbital symmetries:
       Occupied  (A) (A) (A) (A) (A) (A) (A) (A) (A) (A) (A) (A)
                 (A) (A) (A) (A) (A) (A) (A) (A) (A) (A) (A) (A)
                 (A) (A) (A) (A) (A) (A)
       Virtual   (A) (A) (A) (A) (A) (A) (A) (A) (A) (A) (A) (A)
                 (A) (A) (A) (A) (A) (A) (A) (A) (A) (A) (A) (A)
                 (A) (A) (A) (A) (A) (A) (A) (A) (A) (A) (A) (A)
                 (A) (A) (A) (A) (A) (A) (A) (A) (A) (A) (A) (A)
                 (A) (A) (A) (A) (A) (A) (A) (A) (A) (A) (A) (A)
                 (A) (A) (A) (A) (A) (A)
 The electronic state of the initial guess is 1-A.
 Requested convergence on RMS density matrix=1.00D-08 within 128 cycles.
 Requested convergence on MAX density matrix=1.00D-06.
 Requested convergence on             energy=1.00D-06.
 No special actions if energy rises.
 Keep R1 ints in memory in canonical form, NReq=11688490.
 SCF Done:  E(RHF) =  -307.919517123     A.U. after   16 cycles
             Convg  =    0.4799D-08             -V/T =  2.0046

 **********************************************************************

            Population analysis using the SCF density.

 **********************************************************************

 Orbital symmetries:
       Occupied  (A) (A) (A) (A) (A) (A) (A) (A) (A) (A) (A) (A)
                 (A) (A) (A) (A) (A) (A) (A) (A) (A) (A) (A) (A)
                 (A) (A) (A) (A) (A) (A)
       Virtual   (A) (A) (A) (A) (A) (A) (A) (A) (A) (A) (A) (A)
                 (A) (A) (A) (A) (A) (A) (A) (A) (A) (A) (A) (A)
                 (A) (A) (A) (A) (A) (A) (A) (A) (A) (A) (A) (A)
                 (A) (A) (A) (A) (A) (A) (A) (A) (A) (A) (A) (A)
                 (A) (A) (A) (A) (A) (A) (A) (A) (A) (A) (A) (A)
                 (A) (A) (A) (A) (A) (A)
 The electronic state is 1-A.
 Alpha  occ. eigenvalues --  -11.21530 -11.20500 -11.20457 -11.20248 -11.18918
 Alpha  occ. eigenvalues --  -11.18200 -11.17768 -11.16988  -1.12200  -1.05084
 Alpha  occ. eigenvalues --   -1.03999  -0.90991  -0.90585  -0.78997  -0.75799
 Alpha  occ. eigenvalues --   -0.69882  -0.64675  -0.64029  -0.61281  -0.57814
 Alpha  occ. eigenvalues --   -0.53300  -0.53201  -0.51598  -0.50796  -0.50389
 Alpha  occ. eigenvalues --   -0.45823  -0.44620  -0.43879  -0.35013  -0.27392
 Alpha virt. eigenvalues --    0.04519   0.10739   0.23613   0.24512   0.26177
 Alpha virt. eigenvalues --    0.28294   0.29365   0.32575   0.34313   0.35046
 Alpha virt. eigenvalues --    0.36300   0.38425   0.39995   0.41569   0.42829
 Alpha virt. eigenvalues --    0.43867   0.46378   0.47409   0.49927   0.51957
 Alpha virt. eigenvalues --    0.55203   0.60691   0.90637   0.92286   0.95312
 Alpha virt. eigenvalues --    0.99331   1.00984   1.01653   1.03225   1.03642
 Alpha virt. eigenvalues --    1.04405   1.05576   1.05987   1.07212   1.08510
 Alpha virt. eigenvalues --    1.09970   1.12433   1.15750   1.16886   1.18868
 Alpha virt. eigenvalues --    1.21075   1.23536   1.23985   1.25817   1.30208
 Alpha virt. eigenvalues --    1.31196   1.32046   1.33509   1.34802   1.34972
 Alpha virt. eigenvalues --    1.36394   1.40145   1.40774   1.41405   1.44320
 Alpha virt. eigenvalues --    1.48726   1.54653   1.67955   1.79716   1.93903
 Alpha virt. eigenvalues --    2.05403   2.25225   2.34476   2.42185   2.58595
 Alpha virt. eigenvalues --    2.75233
          Condensed to atoms (all electrons):
              1          2          3          4          5          6
     1  C    5.423652   0.277321   0.008016  -0.092547  -0.000476   0.007253
     2  C    0.277321   5.420023   0.004056   0.481123  -0.001085  -0.091720
     3  C    0.008016   0.004056   5.577242  -0.008971   0.220430  -0.069215
     4  C   -0.092547   0.481123  -0.008971   5.439196  -0.064880   0.225207
     5  C   -0.000476  -0.001085   0.220430  -0.064880   5.486082   0.216485
     6  C    0.007253  -0.091720  -0.069215   0.225207   0.216485   5.541632
     7  H   -0.056827   0.370395  -0.000263  -0.050021   0.000081  -0.002890
     8  H   -0.002262  -0.050722  -0.004153   0.375735  -0.001571  -0.057162
     9  H    0.000205   0.000122   0.395307   0.000751  -0.047381   0.000498
    10  H    0.000012  -0.000058  -0.047841   0.001226   0.394161  -0.049702
    11  H    0.355725  -0.053936  -0.000171   0.005241  -0.000001  -0.000274
    12  H   -0.000126   0.000004   0.386274   0.000199  -0.043477   0.003597
    13  H    0.000014  -0.000017  -0.048011   0.003195   0.394085  -0.046887
    14  H   -0.000131   0.003620   0.003526  -0.050850  -0.048001   0.377414
    15  H    0.000728  -0.011748   0.000523  -0.048821  -0.045931   0.393325
    16  C    0.451740  -0.084779  -0.094803  -0.008173   0.004239   0.001396
    17  H   -0.051729   0.004463   0.003595   0.000356  -0.000077  -0.000010
    18  C   -0.085955  -0.017027   0.162716  -0.008584  -0.071932  -0.005630
    19  H   -0.023878   0.000725  -0.048991   0.005162  -0.008589  -0.002613
    20  H    0.002463   0.000337  -0.042004   0.000236   0.003007  -0.000117
              7          8          9         10         11         12
     1  C   -0.056827  -0.002262   0.000205   0.000012   0.355725  -0.000126
     2  C    0.370395  -0.050722   0.000122  -0.000058  -0.053936   0.000004
     3  C   -0.000263  -0.004153   0.395307  -0.047841  -0.000171   0.386274
     4  C   -0.050021   0.375735   0.000751   0.001226   0.005241   0.000199
     5  C    0.000081  -0.001571  -0.047381   0.394161  -0.000001  -0.043477
     6  C   -0.002890  -0.057162   0.000498  -0.049702  -0.000274   0.003597
     7  H    0.512502   0.003669   0.000007  -0.000003   0.002716   0.000005
     8  H    0.003669   0.490985   0.001321   0.000570   0.000225   0.000106
     9  H    0.000007   0.001321   0.506760  -0.004410  -0.000001  -0.022980
    10  H   -0.000003   0.000570  -0.004410   0.518759   0.000000  -0.000209
    11  H    0.002716   0.000225  -0.000001   0.000000   0.527500   0.000003
    12  H    0.000005   0.000106  -0.022980  -0.000209   0.000003   0.523528
    13  H    0.000002   0.000029   0.003101  -0.022650   0.000000  -0.005046
    14  H    0.000092   0.001271  -0.000023  -0.005786   0.000003  -0.000029
    15  H    0.005315   0.002918  -0.000073   0.003243  -0.000054  -0.000072
    16  C    0.002371   0.007652  -0.003630  -0.000177  -0.067368   0.003937
    17  H   -0.000210   0.000005   0.000273   0.000001  -0.001412  -0.000108
    18  C   -0.000537  -0.000081  -0.046015   0.003914   0.006844  -0.044993
    19  H    0.003435   0.000797   0.002597   0.000109   0.001526   0.002382
    20  H    0.000048   0.000026   0.001622  -0.000060  -0.000176  -0.005927
             13         14         15         16         17         18
     1  C    0.000014  -0.000131   0.000728   0.451740  -0.051729  -0.085955
     2  C   -0.000017   0.003620  -0.011748  -0.084779   0.004463  -0.017027
     3  C   -0.048011   0.003526   0.000523  -0.094803   0.003595   0.162716
     4  C    0.003195  -0.050850  -0.048821  -0.008173   0.000356  -0.008584
     5  C    0.394085  -0.048001  -0.045931   0.004239  -0.000077  -0.071932
     6  C   -0.046887   0.377414   0.393325   0.001396  -0.000010  -0.005630
     7  H    0.000002   0.000092   0.005315   0.002371  -0.000210  -0.000537
     8  H    0.000029   0.001271   0.002918   0.007652   0.000005  -0.000081
     9  H    0.003101  -0.000023  -0.000073  -0.003630   0.000273  -0.046015
    10  H   -0.022650  -0.005786   0.003243  -0.000177   0.000001   0.003914
    11  H    0.000000   0.000003  -0.000054  -0.067368  -0.001412   0.006844
    12  H   -0.005046  -0.000029  -0.000072   0.003937  -0.000108  -0.044993
    13  H    0.515325  -0.000148  -0.004329  -0.000065   0.000001   0.001016
    14  H   -0.000148   0.531420  -0.027443  -0.000005   0.000000  -0.000015
    15  H   -0.004329  -0.027443   0.534969   0.000109  -0.000001   0.000460
    16  C   -0.000065  -0.000005   0.000109   5.498653   0.384985   0.231270
    17  H    0.000001   0.000000  -0.000001   0.384985   0.521028  -0.064692
    18  C    0.001016  -0.000015   0.000460   0.231270  -0.064692   5.579772
    19  H    0.001072   0.000161  -0.000199  -0.048243   0.002671   0.397075
    20  H   -0.000001   0.000002  -0.000034  -0.043492  -0.004077   0.393224
             19         20
     1  C   -0.023878   0.002463
     2  C    0.000725   0.000337
     3  C   -0.048991  -0.042004
     4  C    0.005162   0.000236
     5  C   -0.008589   0.003007
     6  C   -0.002613  -0.000117
     7  H    0.003435   0.000048
     8  H    0.000797   0.000026
     9  H    0.002597   0.001622
    10  H    0.000109  -0.000060
    11  H    0.001526  -0.000176
    12  H    0.002382  -0.005927
    13  H    0.001072  -0.000001
    14  H    0.000161   0.000002
    15  H   -0.000199  -0.000034
    16  C   -0.048243  -0.043492
    17  H    0.002671  -0.004077
    18  C    0.397075   0.393224
    19  H    0.519862  -0.025122
    20  H   -0.025122   0.496010
 Mulliken atomic charges:
              1
     1  C   -0.213197
     2  C   -0.251096
     3  C   -0.397261
     4  C   -0.204778
     5  C   -0.385168
     6  C   -0.440588
     7  H    0.210113
     8  H    0.230640
     9  H    0.211949
    10  H    0.208900
    11  H    0.223611
    12  H    0.202931
    13  H    0.209314
    14  H    0.214920
    15  H    0.197117
    16  C   -0.235619
    17  H    0.204939
    18  C   -0.430829
    19  H    0.220062
    20  H    0.224037
 Sum of Mulliken atomic charges =   0.00000
 Mulliken charges with hydrogens summed into heavy atoms:
              1
     1  C    0.010413
     2  C   -0.040983
     3  C    0.017620
     4  C    0.025862
     5  C    0.033047
     6  C   -0.028550
    16  C   -0.030680
    18  C    0.013270
 Sum of Mulliken charges with hydrogens summed into heavy atoms =   0.00000
 Electronic spatial extent (au):  <R**2>=            949.0768
 Charge=              0.0000 electrons
 Dipole moment (field-independent basis, Debye):
    X=             -1.0956    Y=              1.6611    Z=              1.8099  Tot=              2.6898
 Quadrupole moment (field-independent basis, Debye-Ang):
   XX=            -53.5161   YY=            -55.4070   ZZ=            -52.0317
   XY=              2.0103   XZ=              3.1190   YZ=             -0.4931
 Traceless Quadrupole moment (field-independent basis, Debye-Ang):
   XX=              0.1355   YY=             -1.7554   ZZ=              1.6199
   XY=              2.0103   XZ=              3.1190   YZ=             -0.4931
 Octapole moment (field-independent basis, Debye-Ang**2):
  XXX=             -9.9853  YYY=             18.5335  ZZZ=              5.3177  XYY=             -4.8668
  XXY=              5.6893  XXZ=              7.4574  XZZ=             -3.6013  YZZ=              0.8553
  YYZ=              5.6550  XYZ=             -0.8793
 Hexadecapole moment (field-independent basis, Debye-Ang**3):
 XXXX=           -719.9192 YYYY=           -531.2331 ZZZZ=           -137.2292 XXXY=             15.2699
 XXXZ=             21.0302 YYYX=             16.4764 YYYZ=              1.3223 ZZZX=              7.7781
 ZZZY=             -4.2495 XXYY=           -205.2116 XXZZ=           -141.0627 YYZZ=           -113.4270
 XXYZ=              1.3368 YYXZ=              3.0109 ZZXY=             -1.9297
 N-N= 3.643590252943D+02 E-N=-1.443347480931D+03  KE= 3.065095053169D+02
 Calling FoFJK, ICntrl=      2127 FMM=F ISym2X=0 I1Cent= 0 IOpClX= 0 NMat=1 NMatS=1 NMatT=0.
 ***** Axes restored to original set *****
 -------------------------------------------------------------------
 Center     Atomic                   Forces (Hartrees/Bohr)
 Number     Number              X              Y              Z
 -------------------------------------------------------------------
      1        6          -0.000750758    0.079547202   -0.049075983
      2        6           0.015886513    0.140793438    0.044497815
      3        6          -0.018641734    0.044036478    0.019269289
      4        6          -0.120411066   -0.051647223   -0.088155688
      5        6           0.017934366    0.039489217    0.008047959
      6        6           0.075582784   -0.027319613   -0.008944261
      7        1           0.003504750   -0.030352968    0.028033641
      8        1           0.028868287   -0.026650053    0.008793662
      9        1           0.004826018    0.001333099   -0.026888336
     10        1          -0.006201520   -0.010712935   -0.020926175
     11        1          -0.020440151   -0.016897520    0.048940248
     12        1           0.008568029   -0.019248430    0.011833225
     13        1          -0.005102085   -0.013190314    0.019956014
     14        1          -0.018224474    0.002010159   -0.012796303
     15        1           0.001037501    0.006083642    0.026007119
     16        6           0.014597886   -0.138293029   -0.060118687
     17        1           0.019303452    0.005442548    0.024300430
     18        6           0.004366614    0.020583621   -0.005828409
     19        1          -0.019155236    0.010215431    0.016489150
     20        1           0.014450823   -0.015222753    0.016565289
 -------------------------------------------------------------------
 Cartesian Forces:  Max     0.140793438 RMS     0.041418033

 GradGradGradGradGradGradGradGradGradGradGradGradGradGradGradGradGradGrad
 Berny optimization.
 Internal  Forces:  Max     0.112345530 RMS     0.021795678
 Search for a local minimum.
 Step number   1 out of a maximum of  117
 All quantities printed in internal units (Hartrees-Bohrs-Radians)
 Mixed Optimization -- RFO/linear search
 Second derivative matrix not updated -- first step.
     Eigenvalues ---    0.00565   0.00579   0.00888   0.01110   0.01140
     Eigenvalues ---    0.02012   0.02410   0.02907   0.03209   0.03292
     Eigenvalues ---    0.03726   0.04309   0.04846   0.05043   0.05472
     Eigenvalues ---    0.05836   0.06504   0.08086   0.08456   0.08924
     Eigenvalues ---    0.09011   0.09160   0.09455   0.09811   0.12185
     Eigenvalues ---    0.12376   0.12735   0.12862   0.13139   0.14394
     Eigenvalues ---    0.16878   0.21759   0.22556   0.23185   0.29123
     Eigenvalues ---    0.29181   0.30294   0.30608   0.30609   0.30857
     Eigenvalues ---    0.30940   0.30940   0.31109   0.31109   0.31109
     Eigenvalues ---    0.31137   0.31137   0.31138   0.31209   0.31220
     Eigenvalues ---    0.31220   0.31220   0.31497   0.314971000.00000
     Eigenvalues --- 1000.000001000.000001000.000001000.000001000.00000
     Eigenvalues --- 1000.000001000.000001000.000001000.000001000.00000
     Eigenvalues --- 1000.000001000.000001000.000001000.000001000.00000
     Eigenvalues --- 1000.000001000.000001000.000001000.000001000.00000
     Eigenvalues --- 1000.000001000.000001000.000001000.000001000.00000
     Eigenvalues --- 1000.000001000.000001000.000001000.000001000.00000
     Eigenvalues --- 1000.000001000.000001000.000001000.000001000.00000
     Eigenvalues --- 1000.000001000.000001000.000001000.000001000.00000
     Eigenvalues --- 1000.000001000.000001000.000001000.000001000.00000
     Eigenvalues --- 1000.000001000.000001000.000001000.000001000.00000
     Eigenvalues --- 1000.000001000.00000
 RFO step:  Lambda=-1.48139178D-01 EMin= 5.65323972D-03
 Linear search not attempted -- first point.
 Maximum step size (   0.300) exceeded in Quadratic search.
    -- Step size scaled by   0.418
 Iteration  1 RMS(Cart)=  0.03651945 RMS(Int)=  0.00141624
 Iteration  2 RMS(Cart)=  0.00163767 RMS(Int)=  0.00045769
 Iteration  3 RMS(Cart)=  0.00000156 RMS(Int)=  0.00045769
 Iteration  4 RMS(Cart)=  0.00000000 RMS(Int)=  0.00045769
 Variable       Old X    -DE/DX   Delta X   Delta X   Delta X     New X
                                 (Linear)    (Quad)   (Total)
    R1        2.86127  -0.02832   0.00000  -0.02918  -0.02896   2.83231
    R2        2.12452  -0.02434   0.00000  -0.02215  -0.02215   2.10237
    R3        2.86127  -0.10578   0.00000  -0.09580  -0.09607   2.76520
    R4        2.86768  -0.11235   0.00000  -0.10728  -0.10681   2.76087
    R5        2.12294  -0.02714   0.00000  -0.02465  -0.02465   2.09829
    R6        2.86126   0.02119   0.00000   0.02267   0.02246   2.88372
    R7        2.12294  -0.02704   0.00000  -0.02456  -0.02456   2.09838
    R8        2.12505  -0.02374   0.00000  -0.02162  -0.02162   2.10344
    R9        2.86768   0.02359   0.00000   0.02558   0.02511   2.89278
   R10        2.86765   0.00944   0.00000   0.00584   0.00615   2.87380
   R11        2.11775  -0.02480   0.00000  -0.02239  -0.02239   2.09536
   R12        2.86128   0.02260   0.00000   0.01978   0.02006   2.88134
   R13        2.12451  -0.02418   0.00000  -0.02200  -0.02200   2.10251
   R14        2.12450  -0.02429   0.00000  -0.02210  -0.02210   2.10240
   R15        2.12505  -0.02101   0.00000  -0.01913  -0.01913   2.10592
   R16        2.12295  -0.02638   0.00000  -0.02396  -0.02396   2.09898
   R17        2.12505  -0.02695   0.00000  -0.02453  -0.02453   2.10052
   R18        2.86766   0.01999   0.00000   0.02125   0.02094   2.88859
   R19        2.11774  -0.02723   0.00000  -0.02458  -0.02458   2.09316
   R20        2.12315  -0.02611   0.00000  -0.02372  -0.02372   2.09943
    A1        1.87746   0.02341   0.00000   0.04510   0.04484   1.92230
    A2        2.04490  -0.02308   0.00000  -0.02652  -0.02650   2.01839
    A3        1.89766   0.01953   0.00000   0.03662   0.03629   1.93396
    A4        2.01666   0.03159   0.00000   0.02580   0.02630   2.04295
    A5        1.89789   0.00047   0.00000   0.01541   0.01377   1.91166
    A6        1.91969   0.00634   0.00000   0.02803   0.02668   1.94637
    A7        1.89788   0.00281   0.00000   0.00070   0.00065   1.89853
    A8        1.87626   0.00203   0.00000   0.00147   0.00154   1.87780
    A9        2.01669  -0.00610   0.00000  -0.00030  -0.00042   2.01627
   A10        1.84908  -0.00220   0.00000  -0.00266  -0.00265   1.84643
   A11        1.91967  -0.00457   0.00000  -0.00889  -0.00893   1.91074
   A12        1.89654   0.00846   0.00000   0.00973   0.00983   1.90638
   A13        1.97175   0.03445   0.00000   0.04422   0.04355   2.01530
   A14        1.92317  -0.00602   0.00000   0.00222   0.00098   1.92415
   A15        1.92318   0.00805   0.00000   0.02186   0.02087   1.94405
   A16        2.04489  -0.01175   0.00000  -0.01002  -0.00963   2.03527
   A17        1.87746  -0.00145   0.00000  -0.00282  -0.00309   1.87437
   A18        1.89767   0.01075   0.00000   0.01255   0.01260   1.91026
   A19        1.89765   0.00760   0.00000   0.00601   0.00595   1.90360
   A20        1.87749  -0.00200   0.00000  -0.00274  -0.00291   1.87457
   A21        1.86074  -0.00252   0.00000  -0.00246  -0.00240   1.85834
   A22        2.01672  -0.02709   0.00000  -0.03900  -0.03816   1.97856
   A23        1.89653   0.01922   0.00000   0.02776   0.02772   1.92424
   A24        1.91967   0.00077   0.00000   0.00113   0.00067   1.92033
   A25        1.87625   0.00141   0.00000   0.00356   0.00330   1.87956
   A26        1.89787   0.01279   0.00000   0.01507   0.01495   1.91282
   A27        1.84908  -0.00555   0.00000  -0.00603  -0.00604   1.84304
   A28        1.87627  -0.00788   0.00000   0.00093  -0.00068   1.87559
   A29        2.01673   0.03634   0.00000   0.04480   0.04320   2.05993
   A30        1.89654   0.01296   0.00000   0.03201   0.03114   1.92768
   A31        1.97175   0.00757   0.00000   0.02151   0.02067   1.99242
   A32        1.92317  -0.00412   0.00000  -0.00768  -0.00742   1.91575
   A33        1.89144   0.00440   0.00000   0.00417   0.00445   1.89589
   A34        1.92317  -0.00490   0.00000  -0.01096  -0.01075   1.91242
   A35        1.89143  -0.00416   0.00000  -0.00923  -0.00904   1.88240
   A36        1.85885   0.00102   0.00000   0.00130   0.00114   1.86000
    D1        2.80141   0.03121   0.00000   0.07326   0.07363   2.87504
    D2        0.63347  -0.00083   0.00000   0.00455   0.00437   0.63784
    D3        0.65896   0.00253   0.00000   0.00668   0.00706   0.66602
    D4       -1.50898  -0.02951   0.00000  -0.06204  -0.06220  -1.57118
    D5        2.77890   0.01779   0.00000   0.03333   0.03322   2.81212
    D6        0.65812  -0.01711   0.00000  -0.03840  -0.03840   0.61973
    D7        0.64686  -0.01281   0.00000  -0.03777  -0.03786   0.60900
    D8       -1.47391  -0.04771   0.00000  -0.10951  -0.10948  -1.58339
    D9       -1.90164  -0.02685   0.00000  -0.04796  -0.04853  -1.95017
   D10        0.25787   0.00409   0.00000   0.01432   0.01399   0.27185
   D11        0.25489   0.00275   0.00000   0.01498   0.01532   0.27021
   D12        2.41440   0.03370   0.00000   0.07726   0.07784   2.49224
   D13        1.50906   0.00078   0.00000  -0.00009  -0.00007   1.50899
   D14       -0.63338   0.00017   0.00000   0.00131   0.00129  -0.63209
   D15       -2.64205  -0.00159   0.00000  -0.00071  -0.00069  -2.64273
   D16       -2.77961   0.00065   0.00000  -0.00209  -0.00206  -2.78167
   D17        1.36113   0.00004   0.00000  -0.00069  -0.00070   1.36044
   D18       -0.64754  -0.00171   0.00000  -0.00271  -0.00267  -0.65021
   D19       -0.65887   0.00907   0.00000   0.01138   0.01156  -0.64730
   D20       -2.80131   0.00846   0.00000   0.01279   0.01293  -2.78838
   D21        1.47321   0.00670   0.00000   0.01076   0.01095   1.48416
   D22        1.90159  -0.00758   0.00000  -0.01320  -0.01348   1.88811
   D23       -0.25791  -0.00356   0.00000  -0.00868  -0.00873  -0.26664
   D24       -2.28549  -0.00504   0.00000  -0.00840  -0.00854  -2.29403
   D25       -0.25494  -0.00303   0.00000  -0.00668  -0.00681  -0.26175
   D26       -2.41443   0.00099   0.00000  -0.00216  -0.00206  -2.41649
   D27        1.84117  -0.00049   0.00000  -0.00188  -0.00187   1.83930
   D28       -2.27179  -0.00267   0.00000  -0.00411  -0.00423  -2.27602
   D29        1.85190   0.00135   0.00000   0.00041   0.00052   1.85242
   D30       -0.17568  -0.00013   0.00000   0.00069   0.00071  -0.17497
   D31        1.90117   0.01296   0.00000   0.02480   0.02591   1.92708
   D32       -2.27221   0.01097   0.00000   0.02400   0.02465  -2.24756
   D33       -0.25536   0.01560   0.00000   0.03308   0.03368  -0.22168
   D34       -0.25833  -0.01024   0.00000  -0.02667  -0.02659  -0.28491
   D35        1.85148  -0.01223   0.00000  -0.02746  -0.02785   1.82363
   D36       -2.41486  -0.00760   0.00000  -0.01839  -0.01881  -2.43368
   D37       -0.65818   0.01266   0.00000   0.02229   0.02260  -0.63559
   D38       -2.77892   0.00473   0.00000   0.00960   0.00975  -2.76917
   D39        1.50976   0.00411   0.00000   0.00730   0.00755   1.51731
   D40        1.47385   0.00845   0.00000   0.01620   0.01637   1.49023
   D41       -0.64689   0.00053   0.00000   0.00351   0.00353  -0.64336
   D42       -2.64140  -0.00009   0.00000   0.00120   0.00133  -2.64007
   D43       -2.80066   0.00831   0.00000   0.01494   0.01506  -2.78560
   D44        1.36179   0.00039   0.00000   0.00225   0.00221   1.36399
   D45       -0.63272  -0.00023   0.00000  -0.00006   0.00001  -0.63271
   D46       -1.90117   0.01838   0.00000   0.03739   0.03798  -1.86319
   D47        0.25832   0.01480   0.00000   0.03468   0.03502   0.29335
   D48        2.28590   0.01094   0.00000   0.02491   0.02552   2.31142
   D49        2.27217  -0.00591   0.00000  -0.01855  -0.01890   2.25327
   D50       -1.85152  -0.00950   0.00000  -0.02127  -0.02186  -1.87338
   D51        0.17606  -0.01335   0.00000  -0.03103  -0.03136   0.14470
         Item               Value     Threshold  Converged?
 Maximum Force            0.112346     0.000450     NO 
 RMS     Force            0.021796     0.000300     NO 
 Maximum Displacement     0.138867     0.001800     NO 
 RMS     Displacement     0.036116     0.001200     NO 
 Predicted change in Energy=-5.570026D-02
 GradGradGradGradGradGradGradGradGradGradGradGradGradGradGradGradGradGrad

                          Input orientation:                          
 ---------------------------------------------------------------------
 Center     Atomic      Atomic             Coordinates (Angstroms)
 Number     Number       Type             X           Y           Z
 ---------------------------------------------------------------------
      1          6           0        0.324354   -4.491128   -0.002848
      2          6           0        1.822665   -4.454214    0.006277
      3          6           0        0.970184   -0.980784    0.007519
      4          6           0        2.456499   -3.395329    0.788267
      5          6           0        2.496165   -0.973425    0.007652
      6          6           0        3.185738   -2.333053   -0.019481
      7          1           0        2.200772   -4.471605   -1.037585
      8          1           0        1.722881   -2.941043    1.484614
      9          1           0        0.613071   -1.068364    1.055287
     10          1           0        2.826001   -0.416575    0.912643
     11          1           0       -0.037722   -5.143415   -0.828158
     12          1           0        0.629015    0.017897   -0.346329
     13          1           0        2.863921   -0.396197   -0.869457
     14          1           0        4.220908   -2.195572    0.369653
     15          1           0        3.304313   -2.669700   -1.071307
     16          6           0       -0.341025   -3.188402   -0.039855
     17          1           0       -1.383940   -3.356227   -0.385828
     18          6           0        0.315899   -2.069076   -0.847389
     19          1           0        1.064093   -2.501369   -1.540371
     20          1           0       -0.467955   -1.600151   -1.479797
 ---------------------------------------------------------------------
                    Distance matrix (angstroms):
                    1          2          3          4          5
     1  C    0.000000
     2  C    1.498793   0.000000
     3  C    3.569273   3.576512   0.000000
     4  C    2.524416   1.460990   2.940872   0.000000
     5  C    4.134139   3.545349   1.525999   2.544907   0.000000
     6  C    3.584003   2.521499   2.595773   1.520749   1.524741
     7  H    2.142896   1.110367   3.846091   2.134830   3.662928
     8  H    2.563432   2.117812   2.567289   1.108815   2.578935
     9  H    3.594207   3.745333   1.110414   2.980654   2.156988
    10  H    4.868093   4.258017   2.140476   3.004159   1.112602
    11  H    1.112526   2.152282   4.363682   3.448154   4.950553
    12  H    4.532340   4.642080   1.113090   4.034491   2.143425
    13  H    4.895801   4.280026   2.167272   3.450918   1.112544
    14  H    4.537782   3.314374   3.489134   2.174349   2.144627
    15  H    3.652308   2.557530   3.076436   2.168719   2.166703
    16  C    1.463281   2.507182   2.568091   2.924850   3.599726
    17  H    2.086371   3.411984   3.367395   4.016093   4.570316
    18  C    2.565084   2.947536   1.530796   3.002746   2.585557
    19  H    2.621132   2.604065   2.171856   2.856661   2.604192
    20  H    3.341688   3.949814   2.159622   4.113297   3.375099
                    6          7          8          9         10
     6  C    0.000000
     7  H    2.565171   0.000000
     8  H    2.184469   2.988727   0.000000
     9  H    3.061565   4.299181   2.218767   0.000000
    10  H    2.161285   4.542859   2.813709   2.311327   0.000000
    11  H    4.352331   2.346495   3.646790   4.536181   5.794334
    12  H    3.488642   4.806650   3.647495   1.773343   2.569148
    13  H    2.139494   4.132431   3.649638   3.036901   1.782620
    14  H    1.114407   3.352849   2.835314   3.841508   2.324959
    15  H    1.110734   2.113245   3.017829   3.785428   3.039969
    16  C    3.629063   3.017086   2.577771   2.569864   4.315128
    17  H    4.697132   3.810382   3.650105   3.361426   5.296336
    18  C    2.998515   3.059586   2.859749   2.170234   3.482683
    19  H    2.615877   2.329520   3.126956   2.999061   3.669872
    20  H    4.002391   3.944984   3.922434   2.806790   4.239666
                   11         12         13         14         15
    11  H    0.000000
    12  H    5.226456   0.000000
    13  H    5.563930   2.332367   0.000000
    14  H    5.316057   4.279459   2.571878   0.000000
    15  H    4.165043   3.860827   2.324544   1.772374   0.000000
    16  C    2.129668   3.363817   4.330858   4.686645   3.823799
    17  H    2.280790   3.929155   5.199999   5.773404   4.787579
    18  C    3.094669   2.169000   3.048184   4.092223   3.056388
    19  H    2.949856   2.821654   2.849781   3.702321   2.294981
    20  H    3.628285   2.259684   3.594915   5.075473   3.942182
                   16         17         18         19         20
    16  C    0.000000
    17  H    1.111546   0.000000
    18  C    1.528578   2.181570   0.000000
    19  H    2.167469   2.838419   1.107654   0.000000
    20  H    2.147577   2.262654   1.110971   1.778492   0.000000
 Stoichiometry    C8H12
 Framework group  C1[X(C8H12)]
 Deg. of freedom    54
 Full point group                 C1      NOp   1
 Largest Abelian subgroup         C1      NOp   1
 Largest concise Abelian subgroup C1      NOp   1
                         Standard orientation:                         
 ---------------------------------------------------------------------
 Center     Atomic      Atomic             Coordinates (Angstroms)
 Number     Number       Type             X           Y           Z
 ---------------------------------------------------------------------
      1          6           0        2.132504   -0.276888   -0.139583
      2          6           0        1.203850   -1.419595    0.140061
      3          6           0       -1.057021    1.318131   -0.289770
      4          6           0       -0.066372   -1.435445   -0.581589
      5          6           0       -1.978168    0.138084    0.006285
      6          6           0       -1.305101   -1.204441    0.269801
      7          1           0        1.050975   -1.514085    1.235787
      8          1           0       -0.028962   -0.734150   -1.439644
      9          1           0       -0.833187    1.332794   -1.377291
     10          1           0       -2.672459    0.033416   -0.856784
     11          1           0        2.917718   -0.220228    0.646510
     12          1           0       -1.629080    2.250893   -0.085627
     13          1           0       -2.608983    0.373625    0.891919
     14          1           0       -2.058084   -2.003781    0.080128
     15          1           0       -1.047059   -1.286733    1.347007
     16          6           0        1.494028    1.025710   -0.331360
     17          1           0        2.273391    1.804266   -0.183109
     18          6           0        0.253129    1.346902    0.501441
     19          1           0        0.189230    0.646766    1.357375
     20          1           0        0.385399    2.362465    0.932015
 ---------------------------------------------------------------------
 Rotational constants (GHZ):      2.9680078      2.0972165      1.3815875
 Standard basis: 3-21G (6D, 7F)
 There are    96 symmetry adapted basis functions of A   symmetry.
 Integral buffers will be    262144 words long.
 Raffenetti 1 integral format.
 Two-electron integral symmetry is turned on.
    96 basis functions,   156 primitive gaussians,    96 cartesian basis functions
    30 alpha electrons       30 beta electrons
       nuclear repulsion energy       366.1156462512 Hartrees.
 NAtoms=   20 NActive=   20 NUniq=   20 SFac= 7.50D-01 NAtFMM=   80 NAOKFM=F Big=F
 One-electron integrals computed using PRISM.
 NBasis=    96 RedAO= T  NBF=    96
 NBsUse=    96 1.00D-06 NBFU=    96
 Initial guess read from the read-write file.
 B after Tr=     0.000000    0.000000    0.000000
         Rot=    1.000000    0.000000    0.000000    0.000000 Ang=   0.00 deg.
 Initial guess orbital symmetries:
       Occupied  (A) (A) (A) (A) (A) (A) (A) (A) (A) (A) (A) (A)
                 (A) (A) (A) (A) (A) (A) (A) (A) (A) (A) (A) (A)
                 (A) (A) (A) (A) (A) (A)
       Virtual   (A) (A) (A) (A) (A) (A) (A) (A) (A) (A) (A) (A)
                 (A) (A) (A) (A) (A) (A) (A) (A) (A) (A) (A) (A)
                 (A) (A) (A) (A) (A) (A) (A) (A) (A) (A) (A) (A)
                 (A) (A) (A) (A) (A) (A) (A) (A) (A) (A) (A) (A)
                 (A) (A) (A) (A) (A) (A) (A) (A) (A) (A) (A) (A)
                 (A) (A) (A) (A) (A) (A)
 Harris functional with IExCor=  205 diagonalized for initial guess.
 ExpMin= 1.83D-01 ExpMax= 1.72D+02 ExpMxC= 1.72D+02 IAcc=1 IRadAn=         1 AccDes= 0.00D+00
 HarFok:  IExCor=  205 AccDes= 0.00D+00 IRadAn=         1 IDoV= 1
 ScaDFX=  1.000000  1.000000  1.000000  1.000000
 FoFCou: FMM=F IPFlag=           0 FMFlag=      100000 FMFlg1=           0
         NFxFlg=           0 DoJE=T BraDBF=F KetDBF=T FulRan=T
         Omega=  0.000000  0.000000  1.000000  0.000000  0.000000 ICntrl=     500 IOpCl=  0
         NMat0=    1 NMatS0=    1 NMatT0=    0 NMatD0=    1 NMtDS0=    0 NMtDT0=    0
         I1Cent=           4 NGrid=           0.
 Petite list used in FoFCou.
 Requested convergence on RMS density matrix=1.00D-08 within 128 cycles.
 Requested convergence on MAX density matrix=1.00D-06.
 Requested convergence on             energy=1.00D-06.
 No special actions if energy rises.
 Keep R1 ints in memory in canonical form, NReq=11688490.
 SCF Done:  E(RHF) =  -307.975872528     A.U. after   14 cycles
             Convg  =    0.9430D-08             -V/T =  2.0038
 Calling FoFJK, ICntrl=      2127 FMM=F ISym2X=0 I1Cent= 0 IOpClX= 0 NMat=1 NMatS=1 NMatT=0.
 ***** Axes restored to original set *****
 -------------------------------------------------------------------
 Center     Atomic                   Forces (Hartrees/Bohr)
 Number     Number              X              Y              Z
 -------------------------------------------------------------------
      1        6           0.000711367    0.069754030   -0.041530964
      2        6           0.021052414    0.118223905    0.028843169
      3        6          -0.014387263    0.031887132    0.013879779
      4        6          -0.101617949   -0.044143793   -0.074616177
      5        6           0.012873950    0.028395090    0.005424904
      6        6           0.060218595   -0.022776906   -0.000114385
      7        1           0.004648512   -0.026250392    0.022193321
      8        1           0.026248524   -0.020517265    0.011202948
      9        1           0.003374662    0.001403886   -0.019338022
     10        1          -0.003852132   -0.008244274   -0.015289653
     11        1          -0.017726454   -0.015141610    0.045631326
     12        1           0.006381122   -0.014623602    0.007518656
     13        1          -0.005135087   -0.009538358    0.013852458
     14        1          -0.014199775    0.001761866   -0.008611032
     15        1          -0.000879187    0.003983758    0.018507332
     16        6           0.011434769   -0.118118671   -0.055713433
     17        1           0.012913431    0.010126713    0.018404640
     18        6           0.002025117    0.019256599    0.004842214
     19        1          -0.014089614    0.005441633    0.012395946
     20        1           0.010004996   -0.010879741    0.012516972
 -------------------------------------------------------------------
 Cartesian Forces:  Max     0.118223905 RMS     0.034695142

 GradGradGradGradGradGradGradGradGradGradGradGradGradGradGradGradGradGrad
 Berny optimization.
 Using GEDIIS/GDIIS optimizer.
 Internal  Forces:  Max     0.092695462 RMS     0.017397578
 Search for a local minimum.
 Step number   2 out of a maximum of  117
 All quantities printed in internal units (Hartrees-Bohrs-Radians)
 Mixed Optimization -- RFO/linear search
 Update second derivatives using D2CorX and points    1    2
 DE= -5.64D-02 DEPred=-5.57D-02 R= 1.01D+00
 SS=  1.41D+00  RLast= 3.00D-01 DXNew= 5.0454D-01 8.9967D-01
 Trust test= 1.01D+00 RLast= 3.00D-01 DXMaxT set to 5.05D-01
 Use linear search instead of GDIIS.
 Linear search step of   0.600 exceeds DXMaxT=   0.505 but not scaled.
 Quartic linear search produced a step of  2.00000.
 Iteration  1 RMS(Cart)=  0.06884238 RMS(Int)=  0.00579310
 Iteration  2 RMS(Cart)=  0.00663209 RMS(Int)=  0.00268893
 Iteration  3 RMS(Cart)=  0.00002099 RMS(Int)=  0.00268889
 Iteration  4 RMS(Cart)=  0.00000009 RMS(Int)=  0.00268889
 Variable       Old X    -DE/DX   Delta X   Delta X   Delta X     New X
                                 (Linear)    (Quad)   (Total)
    R1        2.83231  -0.01603  -0.05792   0.00000  -0.05614   2.77617
    R2        2.10237  -0.01920  -0.04430   0.00000  -0.04430   2.05807
    R3        2.76520  -0.08475  -0.19215   0.00000  -0.19359   2.57162
    R4        2.76087  -0.09270  -0.21362   0.00000  -0.21065   2.55022
    R5        2.09829  -0.01887  -0.04930   0.00000  -0.04930   2.04899
    R6        2.88372   0.01599   0.04491   0.00000   0.04329   2.92701
    R7        2.09838  -0.01944  -0.04912   0.00000  -0.04912   2.04925
    R8        2.10344  -0.01747  -0.04323   0.00000  -0.04323   2.06020
    R9        2.89278   0.01548   0.05022   0.00000   0.04732   2.94010
   R10        2.87380   0.00419   0.01230   0.00000   0.01446   2.88826
   R11        2.09536  -0.01874  -0.04478   0.00000  -0.04478   2.05058
   R12        2.88134   0.01752   0.04012   0.00000   0.04169   2.92303
   R13        2.10251  -0.01770  -0.04400   0.00000  -0.04400   2.05852
   R14        2.10240  -0.01757  -0.04420   0.00000  -0.04420   2.05821
   R15        2.10592  -0.01598  -0.03826   0.00000  -0.03826   2.06767
   R16        2.09898  -0.01883  -0.04793   0.00000  -0.04793   2.05106
   R17        2.10052  -0.01937  -0.04907   0.00000  -0.04907   2.05145
   R18        2.88859   0.01073   0.04187   0.00000   0.03969   2.92829
   R19        2.09316  -0.01940  -0.04917   0.00000  -0.04917   2.04400
   R20        2.09943  -0.01878  -0.04745   0.00000  -0.04745   2.05199
    A1        1.92230   0.01869   0.08968   0.00000   0.08712   2.00942
    A2        2.01839  -0.01550  -0.05301   0.00000  -0.05247   1.96592
    A3        1.93396   0.01637   0.07258   0.00000   0.06937   2.00332
    A4        2.04295   0.02293   0.05259   0.00000   0.05534   2.09829
    A5        1.91166  -0.00033   0.02754   0.00000   0.01745   1.92912
    A6        1.94637   0.00727   0.05336   0.00000   0.04494   1.99131
    A7        1.89853   0.00161   0.00130   0.00000   0.00094   1.89947
    A8        1.87780   0.00199   0.00308   0.00000   0.00368   1.88148
    A9        2.01627  -0.00434  -0.00085   0.00000  -0.00190   2.01437
   A10        1.84643  -0.00136  -0.00530   0.00000  -0.00528   1.84114
   A11        1.91074  -0.00344  -0.01786   0.00000  -0.01784   1.89290
   A12        1.90638   0.00585   0.01967   0.00000   0.02021   1.92658
   A13        2.01530   0.02480   0.08710   0.00000   0.08258   2.09788
   A14        1.92415  -0.00199   0.00196   0.00000  -0.00501   1.91914
   A15        1.94405   0.00424   0.04174   0.00000   0.03604   1.98009
   A16        2.03527  -0.00778  -0.01925   0.00000  -0.01703   2.01823
   A17        1.87437  -0.00120  -0.00618   0.00000  -0.00761   1.86676
   A18        1.91026   0.00713   0.02519   0.00000   0.02534   1.93560
   A19        1.90360   0.00475   0.01190   0.00000   0.01144   1.91505
   A20        1.87457  -0.00096  -0.00582   0.00000  -0.00665   1.86792
   A21        1.85834  -0.00146  -0.00480   0.00000  -0.00443   1.85391
   A22        1.97856  -0.01991  -0.07633   0.00000  -0.07086   1.90770
   A23        1.92424   0.01459   0.05544   0.00000   0.05484   1.97909
   A24        1.92033  -0.00039   0.00133   0.00000  -0.00134   1.91899
   A25        1.87956   0.00152   0.00661   0.00000   0.00484   1.88440
   A26        1.91282   0.00881   0.02989   0.00000   0.02914   1.94196
   A27        1.84304  -0.00335  -0.01209   0.00000  -0.01201   1.83103
   A28        1.87559  -0.00189  -0.00135   0.00000  -0.01019   1.86540
   A29        2.05993   0.02602   0.08640   0.00000   0.07705   2.13698
   A30        1.92768   0.00711   0.06227   0.00000   0.05723   1.98491
   A31        1.99242   0.00550   0.04135   0.00000   0.03673   2.02915
   A32        1.91575  -0.00220  -0.01484   0.00000  -0.01321   1.90254
   A33        1.89589   0.00326   0.00890   0.00000   0.01021   1.90610
   A34        1.91242  -0.00513  -0.02150   0.00000  -0.02044   1.89198
   A35        1.88240  -0.00273  -0.01807   0.00000  -0.01688   1.86552
   A36        1.86000   0.00115   0.00228   0.00000   0.00142   1.86142
    D1        2.87504   0.03026   0.14726   0.00000   0.14953   3.02457
    D2        0.63784   0.00075   0.00874   0.00000   0.00830   0.64614
    D3        0.66602   0.00409   0.01412   0.00000   0.01615   0.68217
    D4       -1.57118  -0.02541  -0.12440   0.00000  -0.12508  -1.69626
    D5        2.81212   0.01342   0.06644   0.00000   0.06534   2.87746
    D6        0.61973  -0.01464  -0.07679   0.00000  -0.07607   0.54365
    D7        0.60900  -0.01395  -0.07572   0.00000  -0.07685   0.53215
    D8       -1.58339  -0.04200  -0.21896   0.00000  -0.21827  -1.80166
    D9       -1.95017  -0.02139  -0.09706   0.00000  -0.10019  -2.05036
   D10        0.27185   0.00323   0.02798   0.00000   0.02571   0.29756
   D11        0.27021   0.00523   0.03065   0.00000   0.03282   0.30303
   D12        2.49224   0.02985   0.15569   0.00000   0.15871   2.65095
   D13        1.50899   0.00021  -0.00015   0.00000  -0.00026   1.50873
   D14       -0.63209   0.00031   0.00257   0.00000   0.00233  -0.62976
   D15       -2.64273  -0.00098  -0.00137   0.00000  -0.00128  -2.64401
   D16       -2.78167   0.00045  -0.00411   0.00000  -0.00407  -2.78574
   D17        1.36044   0.00055  -0.00139   0.00000  -0.00148   1.35896
   D18       -0.65021  -0.00073  -0.00534   0.00000  -0.00509  -0.65530
   D19       -0.64730   0.00663   0.02313   0.00000   0.02386  -0.62344
   D20       -2.78838   0.00673   0.02585   0.00000   0.02645  -2.76193
   D21        1.48416   0.00544   0.02190   0.00000   0.02284   1.50700
   D22        1.88811  -0.00694  -0.02696   0.00000  -0.02865   1.85946
   D23       -0.26664  -0.00249  -0.01746   0.00000  -0.01787  -0.28450
   D24       -2.29403  -0.00449  -0.01708   0.00000  -0.01797  -2.31199
   D25       -0.26175  -0.00313  -0.01363   0.00000  -0.01447  -0.27622
   D26       -2.41649   0.00132  -0.00412   0.00000  -0.00369  -2.42018
   D27        1.83930  -0.00069  -0.00375   0.00000  -0.00379   1.83551
   D28       -2.27602  -0.00285  -0.00847   0.00000  -0.00927  -2.28529
   D29        1.85242   0.00160   0.00104   0.00000   0.00152   1.85394
   D30       -0.17497  -0.00041   0.00141   0.00000   0.00142  -0.17355
   D31        1.92708   0.01131   0.05182   0.00000   0.05820   1.98528
   D32       -2.24756   0.01014   0.04929   0.00000   0.05291  -2.19465
   D33       -0.22168   0.01439   0.06736   0.00000   0.07051  -0.15118
   D34       -0.28491  -0.01061  -0.05317   0.00000  -0.05242  -0.33733
   D35        1.82363  -0.01178  -0.05570   0.00000  -0.05771   1.76592
   D36       -2.43368  -0.00753  -0.03763   0.00000  -0.04012  -2.47379
   D37       -0.63559   0.01082   0.04519   0.00000   0.04678  -0.58880
   D38       -2.76917   0.00417   0.01950   0.00000   0.02019  -2.74898
   D39        1.51731   0.00279   0.01510   0.00000   0.01653   1.53384
   D40        1.49023   0.00747   0.03275   0.00000   0.03362   1.52384
   D41       -0.64336   0.00081   0.00705   0.00000   0.00703  -0.63633
   D42       -2.64007  -0.00057   0.00266   0.00000   0.00337  -2.63670
   D43       -2.78560   0.00765   0.03011   0.00000   0.03066  -2.75495
   D44        1.36399   0.00099   0.00441   0.00000   0.00407   1.36806
   D45       -0.63271  -0.00039   0.00002   0.00000   0.00041  -0.63231
   D46       -1.86319   0.01745   0.07596   0.00000   0.07865  -1.78454
   D47        0.29335   0.01457   0.07005   0.00000   0.07158   0.36493
   D48        2.31142   0.01173   0.05104   0.00000   0.05400   2.36542
   D49        2.25327  -0.00740  -0.03781   0.00000  -0.03983   2.21344
   D50       -1.87338  -0.01027  -0.04372   0.00000  -0.04691  -1.92029
   D51        0.14470  -0.01312  -0.06272   0.00000  -0.06449   0.08021
         Item               Value     Threshold  Converged?
 Maximum Force            0.092695     0.000450     NO 
 RMS     Force            0.017398     0.000300     NO 
 Maximum Displacement     0.287747     0.001800     NO 
 RMS     Displacement     0.068520     0.001200     NO 
 Predicted change in Energy=-7.791555D-02
 GradGradGradGradGradGradGradGradGradGradGradGradGradGradGradGradGradGrad

                          Input orientation:                          
 ---------------------------------------------------------------------
 Center     Atomic      Atomic             Coordinates (Angstroms)
 Number     Number       Type             X           Y           Z
 ---------------------------------------------------------------------
      1          6           0        0.303590   -4.468718   -0.013891
      2          6           0        1.768428   -4.359329    0.008428
      3          6           0        0.979277   -0.962078    0.022547
      4          6           0        2.364465   -3.356123    0.686308
      5          6           0        2.528058   -0.942288    0.024313
      6          6           0        3.215112   -2.325805   -0.055886
      7          1           0        2.177547   -4.529094   -0.981249
      8          1           0        1.662727   -2.913533    1.385706
      9          1           0        0.629682   -1.089585    1.041119
     10          1           0        2.838212   -0.429988    0.934243
     11          1           0       -0.092796   -5.237313   -0.675889
     12          1           0        0.633684    0.025927   -0.282368
     13          1           0        2.910019   -0.348043   -0.804685
     14          1           0        4.226422   -2.224443    0.349295
     15          1           0        3.356885   -2.635792   -1.086343
     16          6           0       -0.310620   -3.258416   -0.112893
     17          1           0       -1.341924   -3.450235   -0.392362
     18          6           0        0.326564   -2.061846   -0.863511
     19          1           0        1.067687   -2.445832   -1.551427
     20          1           0       -0.457182   -1.615197   -1.467951
 ---------------------------------------------------------------------
                    Distance matrix (angstroms):
                    1          2          3          4          5
     1  C    0.000000
     2  C    1.469086   0.000000
     3  C    3.571331   3.487732   0.000000
     4  C    2.444453   1.349520   2.844429   0.000000
     5  C    4.169583   3.500494   1.548908   2.508305   0.000000
     6  C    3.615357   2.496448   2.620088   1.528400   1.546801
     7  H    2.109773   1.084278   3.894492   2.047326   3.741549
     8  H    2.494940   1.999598   2.476587   1.085118   2.547154
     9  H    3.554985   3.613089   1.084418   2.876205   2.158569
    10  H    4.861544   4.176277   2.137743   2.974588   1.089321
    11  H    1.089083   2.168710   4.462599   3.381211   5.080000
    12  H    4.514740   4.539017   1.090212   3.920740   2.149453
    13  H    4.939513   4.249094   2.188405   3.401358   1.089156
    14  H    4.534014   3.273478   3.499182   2.204804   2.152667
    15  H    3.719191   2.586948   3.111908   2.155473   2.188256
    16  C    1.360840   2.355667   2.637299   2.793626   3.666246
    17  H    1.971868   3.265176   3.427980   3.861308   4.630353
    18  C    2.552531   2.849154   1.555835   2.868820   2.624541
    19  H    2.653287   2.566253   2.164887   2.741846   2.622266
    20  H    3.291754   3.829268   2.170614   3.953903   3.404602
                    6          7          8          9         10
     6  C    0.000000
     7  H    2.605249   0.000000
     8  H    2.198525   2.911624   0.000000
     9  H    3.068568   4.279729   2.124313   0.000000
    10  H    2.171757   4.572555   2.784525   2.307400   0.000000
    11  H    4.450118   2.397765   3.568192   4.546838   5.856083
    12  H    3.499387   4.860059   3.532963   1.730896   2.558895
    13  H    2.136662   4.248397   3.596567   3.026023   1.742338
    14  H    1.094163   3.358519   2.849829   3.834457   2.342939
    15  H    1.085373   2.233042   3.009708   3.788731   3.036011
    16  C    3.647437   2.925686   2.501768   2.630539   4.360234
    17  H    4.705756   3.727922   3.532351   3.393341   5.324970
    18  C    3.010921   3.086635   2.751305   2.159811   3.493316
    19  H    2.619634   2.428348   3.033079   2.958470   3.657450
    20  H    3.998079   3.958469   3.784581   2.784416   4.246749
                   11         12         13         14         15
    11  H    0.000000
    12  H    5.327695   0.000000
    13  H    5.739203   2.365242   0.000000
    14  H    5.365075   4.286132   2.566216   0.000000
    15  H    4.340125   3.891908   2.347939   1.728108   0.000000
    16  C    2.068924   3.421599   4.395607   4.676266   3.845238
    17  H    2.198717   3.999853   5.279452   5.749703   4.819100
    18  C    3.208529   2.188801   3.100777   4.087325   3.092234
    19  H    3.147326   2.812199   2.890074   3.693150   2.343675
    20  H    3.725569   2.299757   3.658366   5.060604   3.966654
                   16         17         18         19         20
    16  C    0.000000
    17  H    1.085581   0.000000
    18  C    1.549583   2.221138   0.000000
    19  H    2.151605   2.856306   1.081636   0.000000
    20  H    2.134907   2.303698   1.085864   1.738433   0.000000
 Stoichiometry    C8H12
 Framework group  C1[X(C8H12)]
 Deg. of freedom    54
 Full point group                 C1      NOp   1
 Largest Abelian subgroup         C1      NOp   1
 Largest concise Abelian subgroup C1      NOp   1
                         Standard orientation:                         
 ---------------------------------------------------------------------
 Center     Atomic      Atomic             Coordinates (Angstroms)
 Number     Number       Type             X           Y           Z
 ---------------------------------------------------------------------
      1          6           0        2.129446   -0.292819   -0.152727
      2          6           0        1.144715   -1.355898    0.088896
      3          6           0       -1.050414    1.325938   -0.302820
      4          6           0       -0.052167   -1.327529   -0.533897
      5          6           0       -2.014690    0.147395   -0.019404
      6          6           0       -1.340178   -1.211845    0.280752
      7          1           0        1.088008   -1.588500    1.146412
      8          1           0       -0.013657   -0.648700   -1.379586
      9          1           0       -0.797616    1.325539   -1.357361
     10          1           0       -2.663647    0.051676   -0.889067
     11          1           0        3.018173   -0.334106    0.475414
     12          1           0       -1.598958    2.253076   -0.135261
     13          1           0       -2.666682    0.372842    0.823413
     14          1           0       -2.064047   -2.003102    0.063682
     15          1           0       -1.120152   -1.317095    1.338365
     16          6           0        1.557716    0.938106   -0.251901
     17          1           0        2.357497    1.665815   -0.155599
     18          6           0        0.269922    1.321118    0.520172
     19          1           0        0.160402    0.645712    1.357889
     20          1           0        0.434585    2.310061    0.937278
 ---------------------------------------------------------------------
 Rotational constants (GHZ):      3.1531181      2.0708551      1.3959443
 Standard basis: 3-21G (6D, 7F)
 There are    96 symmetry adapted basis functions of A   symmetry.
 Integral buffers will be    262144 words long.
 Raffenetti 1 integral format.
 Two-electron integral symmetry is turned on.
    96 basis functions,   156 primitive gaussians,    96 cartesian basis functions
    30 alpha electrons       30 beta electrons
       nuclear repulsion energy       370.4725212738 Hartrees.
 NAtoms=   20 NActive=   20 NUniq=   20 SFac= 7.50D-01 NAtFMM=   80 NAOKFM=F Big=F
 One-electron integrals computed using PRISM.
 NBasis=    96 RedAO= T  NBF=    96
 NBsUse=    96 1.00D-06 NBFU=    96
 Initial guess read from the read-write file.
 B after Tr=     0.000000    0.000000    0.000000
         Rot=    1.000000    0.000000    0.000000    0.000000 Ang=   0.00 deg.
 Initial guess orbital symmetries:
       Occupied  (A) (A) (A) (A) (A) (A) (A) (A) (A) (A) (A) (A)
                 (A) (A) (A) (A) (A) (A) (A) (A) (A) (A) (A) (A)
                 (A) (A) (A) (A) (A) (A)
       Virtual   (A) (A) (A) (A) (A) (A) (A) (A) (A) (A) (A) (A)
                 (A) (A) (A) (A) (A) (A) (A) (A) (A) (A) (A) (A)
                 (A) (A) (A) (A) (A) (A) (A) (A) (A) (A) (A) (A)
                 (A) (A) (A) (A) (A) (A) (A) (A) (A) (A) (A) (A)
                 (A) (A) (A) (A) (A) (A) (A) (A) (A) (A) (A) (A)
                 (A) (A) (A) (A) (A) (A)
 Harris functional with IExCor=  205 diagonalized for initial guess.
 ExpMin= 1.83D-01 ExpMax= 1.72D+02 ExpMxC= 1.72D+02 IAcc=1 IRadAn=         1 AccDes= 0.00D+00
 HarFok:  IExCor=  205 AccDes= 0.00D+00 IRadAn=         1 IDoV= 1
 ScaDFX=  1.000000  1.000000  1.000000  1.000000
 FoFCou: FMM=F IPFlag=           0 FMFlag=      100000 FMFlg1=           0
         NFxFlg=           0 DoJE=T BraDBF=F KetDBF=T FulRan=T
         Omega=  0.000000  0.000000  1.000000  0.000000  0.000000 ICntrl=     500 IOpCl=  0
         NMat0=    1 NMatS0=    1 NMatT0=    0 NMatD0=    1 NMtDS0=    0 NMtDT0=    0
         I1Cent=           4 NGrid=           0.
 Petite list used in FoFCou.
 Requested convergence on RMS density matrix=1.00D-08 within 128 cycles.
 Requested convergence on MAX density matrix=1.00D-06.
 Requested convergence on             energy=1.00D-06.
 No special actions if energy rises.
 Keep R1 ints in memory in canonical form, NReq=11688490.
 SCF Done:  E(RHF) =  -308.047337456     A.U. after   14 cycles
             Convg  =    0.3560D-08             -V/T =  2.0015
 Calling FoFJK, ICntrl=      2127 FMM=F ISym2X=0 I1Cent= 0 IOpClX= 0 NMat=1 NMatS=1 NMatT=0.
 ***** Axes restored to original set *****
 -------------------------------------------------------------------
 Center     Atomic                   Forces (Hartrees/Bohr)
 Number     Number              X              Y              Z
 -------------------------------------------------------------------
      1        6           0.021991892    0.026083798   -0.023627754
      2        6           0.019021750    0.040243196   -0.014754584
      3        6          -0.004068188    0.009335602    0.001248494
      4        6          -0.048032911   -0.000467430   -0.028938492
      5        6           0.002591936    0.006294466   -0.000786619
      6        6           0.028363492   -0.013381073    0.017297917
      7        1           0.008289897   -0.021466451    0.006873862
      8        1           0.020463613   -0.006543298    0.018489459
      9        1          -0.000095475    0.000453794   -0.002599205
     10        1           0.001209783   -0.003330950   -0.002346010
     11        1          -0.013410348   -0.015385995    0.037569684
     12        1           0.001461008   -0.003460426   -0.000970850
     13        1          -0.004268338   -0.000728949    0.000923628
[...]
 107038,-0.00211853,0.00056499,0.01083883,-0.06019417,-0.02739708,0.000
 04300,0.00120962,-0.00093627,-0.01863965,0.00292661,0.01778562,-0.0049
 8944,0.00675387,-0.00648616,-0.00094314,0.06135831,0.00131625,0.002885
 37,-0.00042826,0.01909209,-0.00553855,-0.02191470,0.00063721,0.0000494
 9,-0.00158425,0.13290725,-0.02860506,-0.27326452,0.00008920,-0.0004675
 1,0.00015298,0.00126515,-0.00291669,0.00119092,-0.00071426,-0.00660069
 ,-0.00014883,-0.15272875,0.03976756,0.29122694,0.00015921,-0.00027284,
 0.00013392,0.00012147,-0.00007694,-0.00006550,-0.06407693,-0.00901764,
 0.04118622,-0.00086882,0.00146906,0.00010861,-0.00575778,-0.00714618,0
 .03780231,0.00257034,0.00004345,-0.00036536,-0.00010198,-0.00005550,-0
 .00010187,0.00037880,0.00143469,-0.00011412,0.07198956,0.00023370,-0.0
 0065738,0.00023191,-0.00036818,0.00017030,0.00014174,-0.00900966,-0.06
 876003,0.06161675,0.00147925,-0.00220645,-0.00000525,0.00122799,0.0011
 8037,-0.00575126,-0.00058718,0.00036358,-0.00000359,-0.00006337,0.0000
 2939,0.00009531,0.00169828,-0.00252474,-0.00013368,0.00979702,0.077508
 62,-0.00014021,-0.00065057,0.00013975,-0.00076869,0.00009830,0.0006379
 8,0.04215826,0.05811831,-0.32735556,0.00063236,0.00112825,-0.00115006,
 0.00057856,0.00184882,-0.00621175,-0.00000270,0.00016559,0.00064919,0.
 00011694,-0.00010767,0.00023652,-0.00138192,0.00108050,0.00164342,-0.0
 4350548,-0.06751465,0.35530677,-0.00007948,-0.00059359,0.00038796,0.00
 035400,0.00044440,-0.00024932,-0.01929730,-0.03106841,-0.01192388,-0.0
 0167836,0.00245496,-0.00088510,-0.10612706,-0.10211002,-0.02929890,0.0
 0740423,0.01887728,0.00249486,0.00005242,0.00007345,-0.00002817,0.0001
 1408,0.00007358,-0.00012218,0.00003346,-0.00011452,0.00090489,0.121942
 75,0.00032091,0.00100442,-0.00057785,0.00015164,-0.00101891,0.00111658
 ,0.00467142,0.00118267,0.00050548,0.00269438,-0.00439335,0.00103968,-0
 .10395888,-0.26727599,-0.06473491,-0.01113557,-0.02380797,-0.00671350,
 -0.00001298,-0.00014831,0.00005652,-0.00024029,0.00016937,0.00012688,-
 0.00054584,-0.00017832,0.00022779,0.10833581,0.29358548,-0.00041445,-0
 .00059592,0.00050183,0.00065814,0.00087951,0.00031584,0.00578115,0.009
 32652,0.00298080,-0.00190215,0.00248914,-0.00056170,-0.02958480,-0.065
 01318,-0.07980201,0.00635431,0.01847362,0.00261595,-0.00022197,0.00053
 603,-0.00008153,0.00010010,-0.00013336,-0.00000695,-0.00043439,0.00014
 794,-0.00023257,0.03599211,0.06947167,0.08137968,-0.11236033,-0.109080
 79,0.01725634,-0.00556157,-0.02916883,0.00116008,-0.00033398,0.0002143
 3,-0.00029679,-0.00387151,0.00034003,0.00196129,-0.00014310,0.00045494
 ,-0.00014921,-0.00122842,0.00028409,-0.00172549,-0.00162185,-0.0001646
 1,0.00075357,0.00105944,-0.00119011,0.00015584,0.00001176,0.00004366,0
 .00017366,0.00007885,-0.00015255,0.00000680,0.11293093,-0.09767891,-0.
 32113666,0.03375000,-0.00090022,0.00325724,-0.00060004,0.00005223,0.00
 011251,0.00002485,-0.00004799,0.00037382,0.00095394,-0.00002062,-0.000
 02613,-0.00013770,0.00010007,-0.00017708,-0.00004681,-0.00044719,-0.00
 093232,0.00016215,-0.00011189,-0.00022194,0.00008240,-0.00010863,-0.00
 002555,-0.00009643,-0.00004909,-0.00006279,0.00001701,0.11140049,0.342
 15496,0.01964673,0.03263694,-0.05260277,-0.00504231,-0.00015665,0.0047
 3079,-0.00030470,0.00257271,-0.00116971,-0.00014659,0.00179132,0.00079
 488,-0.00020327,0.00007940,-0.00011870,-0.00048007,-0.00031427,-0.0000
 0417,0.00009681,-0.00132198,-0.00022858,0.00005358,-0.00063580,-0.0000
 3621,-0.00017250,-0.00019066,-0.00034051,-0.00003410,-0.00005334,0.000
 05504,-0.01525665,-0.03946157,0.03444701,-0.00059567,-0.00070856,0.000
 53084,-0.00002320,0.00017508,-0.00028990,-0.07222089,0.07184749,-0.008
 54140,-0.00050791,-0.00155952,0.00058724,-0.01780895,0.03648826,-0.007
 04833,-0.00565098,0.00001289,0.00363058,0.00013552,0.00011082,-0.00009
 695,0.00004291,-0.00007471,-0.00012889,0.00153830,-0.00590793,0.000254
 87,0.00078182,0.00049055,-0.00125715,0.00021398,-0.00008043,0.00046195
 ,0.09589354,-0.00034878,-0.00008912,0.00028648,0.00051088,-0.00001181,
 0.00003128,0.07119002,-0.30694570,0.03858435,0.00062167,-0.00110845,-0
 .00002527,-0.00190314,-0.00306227,0.00085608,-0.00037506,0.00090857,-0
 .00048833,0.00004654,0.00027064,-0.00012777,-0.00002758,0.00016399,-0.
 00021813,0.00208699,-0.00840297,0.00227271,-0.00013577,0.00228542,0.00
 034420,0.00000507,-0.00003530,0.00044494,-0.07260278,0.33711529,-0.000
 08993,-0.00038743,0.00041261,-0.00048017,0.00009763,0.00001348,-0.0080
 9146,0.03881747,-0.06731847,0.00057466,0.00069833,-0.00079686,0.003919
 97,-0.00988514,0.00204449,0.00135355,0.00005886,-0.00010585,0.00017829
 ,-0.00008486,0.00015001,-0.00050510,0.00005170,0.00064537,-0.01118027,
 0.03861053,-0.00487034,-0.00109828,0.00004445,0.00094911,0.00018083,-0
 .00004434,0.00022187,0.01519865,-0.04131644,0.06772790,0.00006766,0.00
 001240,0.00010310,0.00016036,-0.00001468,-0.00002084,-0.00951595,0.001
 80092,0.04016126,-0.00123432,-0.00006348,0.00030852,-0.05455284,-0.000
 72938,0.02024531,-0.00266098,0.00146184,-0.02195834,0.00005296,0.00002
 764,-0.00001611,0.00002167,0.00009914,-0.00006221,-0.00700848,0.001281
 21,0.00118119,0.00137554,-0.00123966,-0.01718244,-0.00000044,0.0000284
 2,0.00001380,0.00047879,0.00050317,-0.00056607,0.07105823,-0.00000059,
 0.00018578,-0.00028324,-0.00034217,-0.00008789,-0.00091257,-0.00119315
 ,0.00054551,0.00014280,0.00183302,0.00287816,0.00006319,-0.00047611,-0
 .06194593,-0.03050841,0.00207782,-0.00159971,0.03169458,0.00018866,-0.
 00059183,-0.00003652,-0.00002607,0.00021426,-0.00014895,-0.00039016,0.
 00029710,0.00040343,0.00363174,-0.00308014,-0.03569463,0.00001986,0.00
 001413,0.00001183,-0.00016546,-0.00023146,-0.00011840,-0.00568471,0.06
 419002,-0.00001200,-0.00013463,0.00024431,0.00045753,0.00048380,0.0001
 7849,0.00147640,-0.00134637,-0.01070212,-0.00060320,-0.00098633,0.0007
 2752,0.02050628,-0.02798692,-0.33512315,-0.00079583,-0.00200878,-0.016
 02010,-0.00015522,0.00018251,0.00021690,-0.00009074,-0.00008949,0.0000
 6589,0.00152973,-0.00087183,0.00073619,0.00029338,-0.00159476,-0.00934
 266,0.00004469,-0.00000497,-0.00008154,0.00073651,-0.00041027,-0.00019
 959,-0.02041346,0.03190700,0.36424974,0.00012155,-0.00110718,-0.000363
 39,-0.00370416,-0.00237123,0.00212648,0.00057137,0.00039068,-0.0007116
 8,-0.00933470,-0.00848343,-0.02495695,-0.00678980,-0.00577392,-0.01566
 781,-0.10441035,-0.03254447,-0.09162954,0.00000281,0.00019379,-0.00026
 810,0.00072280,0.00019063,0.00037412,-0.00037796,-0.00005954,0.0003602
 5,0.00149501,-0.00044132,0.00086749,-0.00041646,-0.00004399,-0.0000396
 8,-0.00011471,0.00007078,0.00016441,-0.00115033,0.00213482,-0.00112893
 ,0.10955973,-0.00002834,-0.00158876,-0.00035901,-0.00568723,-0.0013067
 7,0.00200094,-0.00083406,-0.00022422,0.00041763,-0.01032269,-0.0119044
 7,-0.03057479,0.01229354,0.00601911,0.02902101,-0.03340867,-0.08206472
 ,-0.07373140,-0.00004405,0.00068487,0.00009258,0.00095734,0.00093215,0
 .00099519,0.00007374,0.00003691,-0.00043171,-0.00045223,0.00194790,-0.
 00026405,-0.00053960,-0.00001191,0.00002358,0.00004905,-0.00001215,-0.
 00008833,0.00335221,-0.00370807,0.00266362,0.03891145,0.09472707,0.000
 08153,0.00026499,-0.00000939,0.00041344,0.00105023,0.00037453,-0.00005
 890,0.00037660,-0.00013309,0.00554799,0.00285990,0.00927501,-0.0047129
 5,-0.00414050,-0.01381443,-0.09448170,-0.07597685,-0.27635818,0.000024
 65,0.00018755,0.00021942,-0.00078709,-0.00019612,0.00100277,-0.0004085
 7,-0.00006100,0.00013104,0.00068845,0.00061230,0.00114227,0.00000564,0
 .00000331,-0.00002211,-0.00022090,0.00005678,0.00004146,-0.00165601,0.
 00263557,0.00009169,0.10499478,0.07933930,0.29793051,0.00014673,-0.000
 18436,-0.00037241,0.00172361,-0.00080144,-0.00011200,0.00016772,0.0029
 6404,-0.00169132,-0.01669666,0.00878014,0.01728751,-0.01412110,0.00498
 082,0.01038941,-0.21166928,0.05527555,0.12769845,-0.00028857,-0.000040
 02,-0.00119722,-0.00245742,-0.00223095,-0.00051547,0.00024670,-0.00024
 756,0.00000426,-0.00035951,0.00071358,-0.00025506,-0.00003784,-0.00003
 908,0.00004947,-0.00098881,0.00001657,0.00021610,0.00084408,-0.0008242
 0,-0.00030932,0.01394526,-0.00444095,-0.00932132,0.22968723,0.00014113
 ,-0.00015222,0.00014794,0.00225756,0.00035977,0.00051188,0.00020814,-0
 .00418291,0.00249206,-0.02448081,0.01019670,0.02312979,0.02324535,-0.0
 0801686,-0.01663338,0.05664573,-0.07932585,-0.05388159,0.00024238,0.00
 036305,-0.00088096,-0.00423215,-0.00333842,0.00019626,-0.00046013,0.00
 005848,-0.00001726,-0.00029581,-0.00077014,0.00003542,-0.00004416,0.00
 001178,0.00001954,0.00149175,-0.00004798,-0.00025109,-0.00033103,0.002
 22054,-0.00020877,0.00902705,-0.00348969,-0.00705094,-0.06381128,0.086
 28634,0.00002219,0.00044437,0.00005699,-0.00137389,-0.00007404,0.00046
 546,-0.00100130,0.00296829,-0.00097740,0.00514552,0.00048605,-0.005789
 26,-0.01612452,0.00626232,0.00830738,0.12907658,-0.05361953,-0.1666813
 0,0.00061615,-0.00036589,0.00061818,0.00111389,0.00046843,0.00135638,-
 0.00010839,0.00001953,0.00008525,0.00051684,0.00010379,0.00002187,0.00
 011226,0.00001056,-0.00002298,-0.00089551,0.00012335,0.00023416,-0.000
 67205,-0.00014335,0.00200907,0.02554063,-0.00905465,-0.02004675,-0.141
 76260,0.05234774,0.18046084,-0.30158111,0.23199221,-0.02541974,-0.0473
 2946,0.03119846,-0.00381649,-0.00396686,-0.01415273,0.01101641,-0.0037
 9864,0.00435052,0.00242782,-0.00196271,-0.00162167,-0.00055128,0.00278
 761,-0.00156789,0.00083852,-0.00261070,-0.00027053,-0.00055269,-0.0009
 6468,0.00109353,-0.00144799,0.00134094,0.00101264,0.00068252,-0.000291
 70,-0.00041101,0.00034693,0.01225377,-0.01616239,0.00150437,-0.0006779
 3,-0.00149410,-0.00172863,-0.00000783,-0.00005628,-0.00010778,-0.00002
 928,-0.00000101,-0.00007393,0.00006227,0.00004222,-0.00017749,0.810060
 40,0.22713686,-0.44122518,0.03972552,0.00450015,0.00857171,0.00002194,
 -0.00414450,-0.01188111,0.00088916,-0.00437245,-0.00287744,-0.00150447
 ,-0.00027705,0.00018625,0.00025354,0.00088480,-0.00043332,0.00074935,-
 0.00319806,0.00103112,0.00037088,-0.00056489,0.00095387,0.00032376,0.0
 0117524,0.00175102,0.00092381,0.00043915,-0.00029334,-0.00012872,0.025
 22227,-0.02327779,0.00492187,-0.00105221,0.00045473,-0.00020473,-0.000
 06237,-0.00007164,0.00009496,0.00003333,-0.00013554,-0.00004742,0.0000
 4888,-0.00014030,0.00010871,-0.18568144,0.73232520,-0.02846194,0.04577
 452,-0.08120519,0.00591789,0.00078823,0.01187766,0.00287931,-0.0192308
 5,0.01137986,-0.00086500,-0.00232151,-0.00242457,0.00025810,-0.0004132
 0,-0.00046697,-0.00044415,0.00037530,0.00095770,0.00003067,0.00090973,
 -0.00066919,-0.00090815,0.00064165,0.00019618,0.00101132,0.00038678,0.
 00187057,-0.00036339,0.00038262,0.00006410,-0.00392743,0.00534087,0.01
 050609,-0.00367892,-0.00352474,-0.00305115,-0.00034545,0.00019951,0.00
 020147,0.00015387,0.00014438,-0.00001925,-0.00013725,0.00000851,-0.000
 06703,0.00148705,-0.09227015,0.20688203,-0.01981994,-0.00745755,0.0018
 5617,-0.00142183,0.00323392,-0.00053788,0.00061555,-0.00051692,0.00088
 771,-0.00010532,0.00105997,0.00064028,-0.00023360,-0.00018063,-0.00010
 094,0.00053491,-0.00027433,0.00020839,-0.00056169,-0.00014135,0.000045
 18,-0.00003627,-0.00001614,-0.00006977,-0.00011891,0.00009865,-0.00006
 346,-0.00003701,-0.00013587,0.00007322,0.00122265,0.00068945,-0.000589
 22,-0.00028002,-0.00029635,-0.00019891,0.00004450,0.00002541,0.0000114
 2,-0.00006312,-0.00005423,-0.00004376,-0.00003860,0.00000805,0.0000017
 6,-0.35816082,-0.03110477,0.01689226,0.38274271,0.03533943,0.00620394,
 -0.00017726,0.00228057,-0.00347488,0.00297664,-0.00009654,-0.00234628,
 0.00288527,0.00082645,-0.00029954,-0.00028384,0.00011519,-0.00030220,-
 0.00016500,-0.00076905,0.00040486,-0.00013995,0.00027538,0.00020325,-0
 .00022583,0.00014751,-0.00019988,0.00023362,0.00009650,0.00018849,-0.0
 0026352,-0.00036366,0.00017661,-0.00011086,-0.00015720,0.00095649,-0.0
 0160163,-0.00045811,-0.00056738,-0.00051967,0.00006809,0.00006653,-0.0
 0013654,0.00003237,0.00008058,0.00000019,-0.00002125,0.00002111,-0.000
 00893,-0.03842758,-0.07123485,0.00469526,0.03313318,0.07707834,-0.0029
 7783,-0.00033052,0.01002795,-0.00096099,0.00188141,0.01520176,-0.00030
 872,-0.00013144,-0.00168499,0.00239919,0.00059959,0.00009905,0.0002605
 4,0.00075872,0.00016243,-0.00108082,0.00040687,-0.00012769,-0.00257234
 ,-0.00045100,-0.00053622,0.00047102,-0.00044688,0.00020326,-0.00017717
 ,-0.00018142,-0.00012246,0.00007340,0.00011026,-0.00016040,-0.00037889
 ,-0.00106333,-0.00939042,0.00016610,0.00012428,0.00017967,0.00003084,-
 0.00002542,-0.00004347,0.00000875,-0.00000848,0.00001043,0.00005396,-0
 .00008276,-0.00003111,0.01634469,0.00396608,-0.05368254,-0.01828349,-0
 .00968606,0.03376647,0.01228985,0.01903476,-0.00207913,0.00005214,0.00
 201112,-0.00162595,-0.10384871,-0.02028122,-0.01865341,-0.00047780,0.0
 0089183,-0.00030623,-0.01789991,-0.01928460,-0.01915300,-0.00053305,-0
 .00072825,0.00064475,0.00051406,0.00034454,-0.00033565,0.00004405,0.00
 009935,-0.00007488,0.00303794,0.00267696,0.00249393,-0.00504722,0.0008
 3268,0.00112119,-0.00227276,0.00378645,0.00076228,-0.00107898,0.003047
 63,0.00097749,0.00192235,-0.00059654,-0.00153372,0.00001138,0.00015400
 ,-0.00002692,-0.00010942,0.00026098,-0.00002362,-0.10929865,-0.0128303
 5,0.00145686,-0.00630987,-0.03059353,0.00673323,0.57959425,-0.00575841
 ,-0.02466042,0.00919937,-0.00142300,-0.00191659,-0.00256329,-0.0083329
 5,-0.10019432,-0.01353104,0.00030500,-0.00070096,0.00045623,0.00098743
 ,0.00104845,0.00428196,0.00104539,0.00061749,-0.00056161,0.00005382,0.
 00081185,-0.00046248,-0.00023080,0.00041245,0.00016034,0.00321809,0.00
 298981,0.00440067,0.00128865,0.00085817,0.00010664,0.00163717,0.000412
 85,0.00361177,-0.02625809,-0.02224811,-0.02539234,-0.00029397,0.000537
 41,-0.00008379,-0.00024695,-0.00006365,0.00008050,-0.00007199,-0.00025
 769,0.00001299,-0.02570912,-0.16168053,0.01905163,0.00324056,-0.005224
 57,0.00450178,-0.08349154,0.50169530,0.00157558,0.00431795,0.00512369,
 0.00153294,-0.00088480,-0.00947029,-0.02624494,-0.02109382,-0.11218097
 ,-0.00205099,-0.00136201,0.00026849,0.00375950,0.00622556,0.00402376,0
 .00025091,0.00024863,-0.00101039,0.00171449,0.00011110,0.00020291,-0.0
 0033858,-0.00007450,-0.00049838,-0.02282692,-0.02352705,-0.01912289,0.
 00311804,-0.00027781,-0.00090219,0.00040428,0.00049050,0.01261979,0.00
 045374,0.00291759,0.00201487,0.00245728,0.00081398,0.00077293,-0.00002
 462,-0.00000926,0.00008864,0.00010691,-0.00005286,0.00006583,0.0057040
 9,0.03068810,-0.09181323,-0.00067075,0.00211074,0.00640781,-0.05786177
 ,-0.00332698,0.55208513,-0.00054395,0.00143523,-0.00069858,0.00088638,
 0.00012787,0.00024015,0.00568296,-0.00325972,-0.02664152,0.00049360,-0
 .00040878,0.00009056,0.00146495,0.00075825,-0.00213233,-0.00054409,0.0
 0001839,-0.00007706,-0.00000206,-0.00000440,0.00021449,0.00002420,-0.0
 0017049,0.00012443,-0.00277078,-0.00295618,-0.00289962,0.00043202,0.00
 006629,-0.00000363,-0.00002674,-0.00009846,-0.00027133,0.00012235,-0.0
 0001848,0.00057182,-0.00040531,-0.00019497,0.00042612,-0.00000369,-0.0
 0001534,0.00011689,-0.00000560,0.00002299,-0.00000753,-0.00387156,-0.0
 0405847,0.00665125,-0.00021651,-0.00096440,-0.00001695,-0.09914760,0.0
 0978843,0.10459249,0.11274314,-0.00170853,-0.00068892,-0.00025290,-0.0
 0107140,0.00005116,0.00206014,0.00407782,-0.00090965,-0.01759682,0.000
 73064,0.00069440,-0.00035801,0.00098828,0.00108627,-0.00049183,-0.0000
 3679,0.00000332,0.00036071,0.00056116,-0.00020847,-0.00019163,-0.00005
 556,-0.00019084,-0.00008623,-0.00169930,-0.00183982,-0.00142072,0.0001
 6262,-0.00005715,0.00004287,-0.00001659,-0.00015572,-0.00248403,0.0003
 8919,-0.00025657,0.00036509,-0.00045812,0.00021872,0.00053609,0.000059
 62,0.00001261,0.00002706,-0.00001354,0.00007291,-0.00002484,-0.0160507
 6,-0.00577032,0.03571976,-0.00102445,-0.00255783,-0.00001528,0.0081525
 6,-0.05467517,-0.00944441,-0.00204205,0.06677128,0.00100019,-0.0001256
 0,0.00176027,-0.00051112,-0.00014772,0.00013470,0.00714752,-0.00325804
 ,-0.02480084,-0.00007604,-0.00036140,-0.00035152,0.00195503,0.00145780
 ,0.00058467,-0.00007084,0.00003279,0.00030410,-0.00039032,0.00026816,-
 0.00004520,-0.00002876,0.00001491,0.00013045,-0.00249868,-0.00323098,-
 0.00137058,0.00038069,0.00011883,0.00063419,-0.00016045,0.00017559,0.0
 0051836,-0.00019357,-0.00071330,-0.00030523,-0.00158704,0.00000783,0.0
 0160130,0.00016246,-0.00013919,0.00009535,-0.00007988,0.00006497,-0.00
 003781,0.00612905,0.00178878,-0.00873636,0.00000505,0.00118988,-0.0009
 3968,0.10182603,-0.01160754,-0.28623218,-0.11248078,0.01517673,0.31321
 730,-0.00031633,-0.00167582,0.00047209,-0.00056729,0.00050191,-0.00070
 335,-0.02165026,0.01014443,-0.00165617,0.00001086,0.00040827,0.0002797
 5,-0.00091939,-0.00257464,-0.00278146,-0.00014774,-0.00025831,0.000100
 67,0.00009598,-0.00012042,0.00003384,0.00007124,-0.00011046,0.00001697
 ,-0.00034683,-0.00023524,-0.00077960,-0.00114653,-0.00000329,-0.000045
 41,0.00010365,-0.00026822,-0.00004858,0.00074084,-0.00089727,0.0006030
 5,0.00051034,0.00003908,-0.00033185,-0.00003536,0.00003707,-0.00008131
 ,-0.00005077,0.00006203,0.00000107,0.00804694,-0.01209413,0.00239310,0
 .00224318,-0.00046335,0.00021549,-0.25144205,0.13025230,-0.01565169,-0
 .01431170,0.00905520,-0.00052853,0.27911121,-0.00383682,-0.00535691,0.
 00151082,-0.00076639,0.00011761,0.00031932,-0.02027181,0.00538975,-0.0
 0322754,0.00002151,-0.00059161,0.00002501,-0.00162089,-0.00073556,-0.0
 0244439,-0.00052605,-0.00007125,0.00016196,-0.00001449,0.00008386,-0.0
 0006939,-0.00000572,0.00002201,-0.00010540,0.00037840,0.00002120,-0.00
 016564,-0.00059856,-0.00012365,0.00007015,0.00089253,-0.00123058,0.000
 10600,-0.00218728,0.00182061,-0.00045128,0.00024237,-0.00005150,-0.000
 00454,0.00002750,0.00006873,-0.00002148,-0.00005294,0.00013137,-0.0000
 6490,0.03191694,-0.02625255,0.00334172,-0.00028660,0.00082720,0.000073
 60,0.12651316,-0.13776176,0.01212934,0.00197428,-0.00160023,-0.0007125
 2,-0.13179914,0.16529326,0.00137198,0.00207760,0.00019419,0.00037484,0
 .00001458,0.00006144,-0.02371663,0.01072291,-0.00210709,-0.00007310,-0
 .00013237,0.00010978,-0.00059998,-0.00214850,-0.00311756,-0.00020554,-
 0.00002203,0.00027153,-0.00018019,0.00011979,0.00008309,0.00003135,-0.
 00000338,0.00006754,0.00018711,0.00022089,-0.00065996,-0.00084731,0.00
 003530,0.00042935,-0.00032037,0.00044400,0.00012388,0.00033104,0.00078
 222,0.00201250,-0.00002128,-0.00000821,0.00041713,0.00003747,-0.000037
 36,0.00000009,-0.00005223,0.00010549,-0.00002777,-0.01260545,0.0093290
 2,-0.00180016,-0.00006327,-0.00077254,0.00066015,-0.01434148,0.0116651
 9,-0.06244333,0.03220112,-0.02192177,0.00383870,0.01849191,-0.01047083
 ,0.06188649||0.00003057,0.00003035,0.00004376,0.00000942,-0.00009187,-
 0.00000531,-0.00000596,0.00000831,0.00001988,-0.00003263,0.00005041,-0
 .00002569,-0.00002181,0.00004492,-0.00002958,0.00001290,-0.00005272,0.
 00001565,0.00000190,0.00002739,-0.00000464,-0.00000200,-0.00001143,0.0
 0001053,0.00000017,-0.00000143,-0.00000063,0.00000470,0.00000661,-0.00
 000325,0.00000111,0.00000006,0.00000469,0.00000903,0.00000265,-0.00000
 271,-0.00000597,-0.00001125,0.00000837,-0.00001592,-0.00000548,-0.0000
 0793,0.00000770,0.00001365,-0.00000504,-0.00002559,-0.00001400,-0.0000
 5141,-0.00000249,-0.00000057,-0.00000284,0.00002968,0.00001281,0.00002
 715,0.00000134,-0.00001090,0.00000757,0.00000383,0.00000249,0.00000143
 |||@


 CONTRAIWISE...CONTINUED TWEEDLEDEE, IF IT WAS SO, IT MIGHT BE,
 AND IF IT WERE SO, IT WOULD BE.....
 BUT AS IT ISN'T, IT AIN'T....
 THAT'S LOGIC.....
 ALICE THROUGH THE LOOKING GLASS
 Job cpu time:  0 days  0 hours  0 minutes 20.0 seconds.
 File lengths (MBytes):  RWF=     31 Int=      0 D2E=      0 Chk=      2 Scr=      1
 Normal termination of Gaussian 09 at Tue Dec 10 19:03:32 2024.
