 Entering Link 1 = C:\G09W\l1.exe PID=     17364.
  
 Copyright (c) 1988,1990,1992,1993,1995,1998,2003,2009, Gaussian, Inc.
                  All Rights Reserved.
  
 This is part of the Gaussian(R) 09 program.  It is based on
 the Gaussian(R) 03 system (copyright 2003, Gaussian, Inc.),
 the Gaussian(R) 98 system (copyright 1998, Gaussian, Inc.),
 the Gaussian(R) 94 system (copyright 1995, Gaussian, Inc.),
 the Gaussian 92(TM) system (copyright 1992, Gaussian, Inc.),
 the Gaussian 90(TM) system (copyright 1990, Gaussian, Inc.),
 the Gaussian 88(TM) system (copyright 1988, Gaussian, Inc.),
 the Gaussian 86(TM) system (copyright 1986, Carnegie Mellon
 University), and the Gaussian 82(TM) system (copyright 1983,
 Carnegie Mellon University). Gaussian is a federally registered
 trademark of Gaussian, Inc.
  
 This software contains proprietary and confidential information,
 including trade secrets, belonging to Gaussian, Inc.
  
 This software is provided under written license and may be
 used, copied, transmitted, or stored only in accord with that
 written license.
  
 The following legend is applicable only to US Government
 contracts under FAR:
  
                    RESTRICTED RIGHTS LEGEND
  
 Use, reproduction and disclosure by the US Government is
 subject to restrictions as set forth in subparagraphs (a)
 and (c) of the Commercial Computer Software - Restricted
 Rights clause in FAR 52.227-19.
  
 Gaussian, Inc.
 340 Quinnipiac St., Bldg. 40, Wallingford CT 06492
  
  
 ---------------------------------------------------------------
 Warning -- This program may not be used in any manner that
 competes with the business of Gaussian, Inc. or will provide
 assistance to any competitor of Gaussian, Inc.  The licensee
 of this program is prohibited from giving any competitor of
 Gaussian, Inc. access to this program.  By using this program,
 the user acknowledges that Gaussian, Inc. is engaged in the
 business of creating and licensing software in the field of
 computational chemistry and represents and warrants to the
 licensee that it is not a competitor of Gaussian, Inc. and that
 it will not use this program in any manner prohibited above.
 ---------------------------------------------------------------
  

 Cite this work as:
 Gaussian 09, Revision A.02,
 M. J. Frisch, G. W. Trucks, H. B. Schlegel, G. E. Scuseria, 
 M. A. Robb, J. R. Cheeseman, G. Scalmani, V. Barone, B. Mennucci, 
 G. A. Petersson, H. Nakatsuji, M. Caricato, X. Li, H. P. Hratchian, 
 A. F. Izmaylov, J. Bloino, G. Zheng, J. L. Sonnenberg, M. Hada, 
 M. Ehara, K. Toyota, R. Fukuda, J. Hasegawa, M. Ishida, T. Nakajima, 
 Y. Honda, O. Kitao, H. Nakai, T. Vreven, J. A. Montgomery, Jr., 
 J. E. Peralta, F. Ogliaro, M. Bearpark, J. J. Heyd, E. Brothers, 
 K. N. Kudin, V. N. Staroverov, R. Kobayashi, J. Normand, 
 K. Raghavachari, A. Rendell, J. C. Burant, S. S. Iyengar, J. Tomasi, 
 M. Cossi, N. Rega, J. M. Millam, M. Klene, J. E. Knox, J. B. Cross, 
 V. Bakken, C. Adamo, J. Jaramillo, R. Gomperts, R. E. Stratmann, 
 O. Yazyev, A. J. Austin, R. Cammi, C. Pomelli, J. W. Ochterski, 
 R. L. Martin, K. Morokuma, V. G. Zakrzewski, G. A. Voth, 
 P. Salvador, J. J. Dannenberg, S. Dapprich, A. D. Daniels, 
 O. Farkas, J. B. Foresman, J. V. Ortiz, J. Cioslowski, 
 and D. J. Fox, Gaussian, Inc., Wallingford CT, 2009.
 
 ******************************************
 Gaussian 09:  IA32W-G09RevA.02 11-Jun-2009
                11-Dec-2024 
 ******************************************
 %chk=C:\G09W\ethoxide\CYCLOPENTADIENEnone.chk
 ---------------------------------------
 # rzindo=(nstates=20) geom=connectivity
 ---------------------------------------
 1/38=1,57=2/1;
 2/12=2,17=6,18=5,40=1/2;
 3/5=2,16=1,25=1,41=400000,116=1/1,2,8,3;
 4/5=3,35=1/1;
 5/5=2,35=1,38=5/2;
 8/6=1,108=20/1;
 9/41=20,42=1,49=10/14;
 6/7=2,8=2,9=2,10=2/1;
 99/5=1,9=1/99;
 -------------------
 Title Card Required
 -------------------
 Symbolic Z-matrix:
 Charge =  0 Multiplicity = 1
 C                    -0.74211  -0.98339  -0.00005 
 C                     0.74261  -0.98304   0.00013 
 C                     1.1815    0.27183  -0.00013 
 C                    -0.00031   1.22661  -0.00006 
 C                    -1.18162   0.27123   0.00002 
 H                    -1.34183  -1.86835   0.0003 
 H                     1.34275  -1.86773  -0.00055 
 H                     2.19996   0.59587   0.00037 
 H                    -0.00044   1.86262   0.88095 
 H                    -0.00052   1.86351  -0.88027 
 H                    -2.20026   0.59472  -0.00025 
 
                          Input orientation:                          
 ---------------------------------------------------------------------
 Center     Atomic      Atomic             Coordinates (Angstroms)
 Number     Number       Type             X           Y           Z
 ---------------------------------------------------------------------
      1          6           0       -0.742108   -0.983385   -0.000052
      2          6           0        0.742608   -0.983043    0.000125
      3          6           0        1.181495    0.271826   -0.000132
      4          6           0       -0.000314    1.226605   -0.000056
      5          6           0       -1.181622    0.271225    0.000023
      6          1           0       -1.341832   -1.868349    0.000297
      7          1           0        1.342745   -1.867727   -0.000547
      8          1           0        2.199961    0.595866    0.000374
      9          1           0       -0.000436    1.862619    0.880947
     10          1           0       -0.000522    1.863506   -0.880273
     11          1           0       -2.200264    0.594720   -0.000247
 ---------------------------------------------------------------------
                    Distance matrix (angstroms):
                    1          2          3          4          5
     1  C    0.000000
     2  C    1.484716   0.000000
     3  C    2.296912   1.329405   0.000000
     4  C    2.331162   2.331197   1.519301   0.000000
     5  C    1.329368   2.296922   2.363117   1.519289   0.000000
     6  H    1.069032   2.264654   3.308705   3.373190   2.145564
     7  H    2.264657   1.069033   2.145621   3.373233   3.308707
     8  H    3.339132   2.148681   1.068773   2.288895   3.397130
     9  H    3.070175   3.070139   2.168844   1.086591   2.168816
    10  H    3.070754   3.070860   2.169161   1.086474   2.169165
    11  H    2.148635   3.339136   3.397139   2.288899   1.068775
                    6          7          8          9         10
     6  H    0.000000
     7  H    2.684577   0.000000
     8  H    4.314702   2.608469   0.000000
     9  H    4.061405   4.061607   2.687344   0.000000
    10  H    4.062174   4.062066   2.687857   1.761220   0.000000
    11  H    2.608374   4.314691   4.400225   2.687622   2.687588
                   11
    11  H    0.000000
 Stoichiometry    C5H6
 Framework group  C1[X(C5H6)]
 Deg. of freedom    27
 Full point group                 C1      NOp   1
 Largest Abelian subgroup         C1      NOp   1
 Largest concise Abelian subgroup C1      NOp   1
                         Standard orientation:                         
 ---------------------------------------------------------------------
 Center     Atomic      Atomic             Coordinates (Angstroms)
 Number     Number       Type             X           Y           Z
 ---------------------------------------------------------------------
      1          6           0       -0.742112   -0.983382   -0.000052
      2          6           0        0.742604   -0.983046    0.000125
      3          6           0        1.181496    0.271821   -0.000132
      4          6           0       -0.000309    1.226605   -0.000056
      5          6           0       -1.181621    0.271230    0.000023
      6          1           0       -1.341840   -1.868344    0.000297
      7          1           0        1.342737   -1.867732   -0.000547
      8          1           0        2.199963    0.595857    0.000374
      9          1           0       -0.000429    1.862619    0.880947
     10          1           0       -0.000515    1.863506   -0.880273
     11          1           0       -2.200262    0.594729   -0.000247
 ---------------------------------------------------------------------
 Rotational constants (GHZ):      8.5207081      8.1930683      4.2876179
 Standard basis: VSTO-6G (5D, 7F)
 There are    26 symmetry adapted basis functions of A   symmetry.
 Integral buffers will be    262144 words long.
 Regular integral format.
 Two-electron integral symmetry is turned off.
    26 basis functions,   156 primitive gaussians,    26 cartesian basis functions
    13 alpha electrons       13 beta electrons
       nuclear repulsion energy        81.5722854928 Hartrees.
 Do NDO integrals.
 One-electron integrals computed using PRISM.
 Generate ZINDO/S integrals.
 NDO Nuclear repulsion=    53.128006642296 Hartrees.
 NBasis=    26 RedAO= F  NBF=    26
 NBsUse=    26 1.00D-04 NBFU=    26
 DipDrv:  will hold  3 matrices at once.
 Simple Huckel Guess.
 Initial guess orbital symmetries:
       Occupied  (A) (A) (A) (A) (A) (A) (A) (A) (A) (A) (A) (A)
                 (A)
       Virtual   (A) (A) (A) (A) (A) (A) (A) (A) (A) (A) (A) (A)
                 (A)
 The electronic state of the initial guess is 1-A.
 Requested convergence on RMS density matrix=1.00D-08 within 128 cycles.
 Requested convergence on MAX density matrix=1.00D-06.
 Requested convergence on             energy=1.00D-06.
 No special actions if energy rises.
 Overlap will be assumed to be unity.
 SCF Done:  E(RZINDO/S) =  -32.4359634611     A.U. after   11 cycles
             Convg  =    0.1202D-08             -V/T =  0.7859
 Range of M.O.s used for correlation:     1    26
 NBasis=    26 NAE=    13 NBE=    13 NFC=     0 NFV=     0
 NROrb=     26 NOA=    13 NOB=    13 NVA=    13 NVB=    13
 Orbital symmetries:
       Occupied  (A) (A) (A) (A) (A) (A) (A) (A) (A) (A) (A) (A)
                 (A)
       Virtual   (A) (A) (A) (A) (A) (A) (A) (A) (A) (A) (A) (A)
                 (A)
    80 initial guesses have been made.
 Convergence on wavefunction:    0.001000000000000
 Iteration     1 Dimension    80 NMult    80
 CISAX will form    80 AO SS matrices at one time.
 New state      3 was old state      5
 New state      5 was old state      3
 New state      6 was old state      8
 New state      7 was old state      9
 New state      8 was old state      7
 New state      9 was old state     10
 New state     10 was old state      6
 New state     11 was old state     13
 New state     12 was old state     15
 New state     13 was old state     14
 New state     14 was old state     12
 New state     15 was old state     11
 New state     17 was old state     23
 New state     18 was old state     17
 New state     19 was old state     24
 New state     20 was old state     19
 Iteration     2 Dimension   160 NMult   160
 New state      9 was old state     10
 New state     10 was old state      9
 New state     12 was old state     13
 New state     13 was old state     12
 Iteration     3 Dimension   165 NMult   165
 ***********************************************************************
 Excited states from <AA,BB:AA,BB> singles matrix:
 ***********************************************************************
 
 Ground to excited state transition electric dipole moments (Au):
       state          X           Y           Z        Dip. S.      Osc.
         1        -1.1990     -0.0005      0.0009      1.4375      0.1730
         2         0.0003     -0.7841      0.0004      0.6148      0.0935
         3         0.0003      0.0005      0.0634      0.0040      0.0006
         4        -0.0001      0.0004      0.0000      0.0000      0.0000
         5         0.0006     -1.9771     -0.0002      3.9089      0.7135
         6        -0.0004     -0.0037     -0.1602      0.0257      0.0050
         7        -0.0001     -0.0012      0.7331      0.5374      0.1060
         8         0.0005      0.0001      0.0000      0.0000      0.0000
         9         0.3581      0.0002      0.0009      0.1282      0.0261
        10         0.0001     -0.0004      0.0000      0.0000      0.0000
        11        -0.0004      0.0017      0.0000      0.0000      0.0000
        12        -0.0003      0.0007      0.0000      0.0000      0.0000
        13        -0.0005      0.0001     -0.1450      0.0210      0.0046
        14        -0.0006      0.0000      0.0000      0.0000      0.0000
        15         0.0000     -0.0001     -0.2060      0.0424      0.0097
        16         0.0001     -0.0004      0.0000      0.0000      0.0000
        17         0.0008      0.0002      0.1777      0.0316      0.0082
        18         0.1675      0.0000     -0.0004      0.0280      0.0073
        19        -0.0004      0.0000      0.2490      0.0620      0.0165
        20         0.0000     -0.0001     -0.0001      0.0000      0.0000
 Ground to excited state transition velocity dipole moments (Au):
       state          X           Y           Z        Dip. S.      Osc.
         1         0.1120      0.0001     -0.0001      0.0126      0.0464
         2         0.0000      0.0952     -0.0001      0.0091      0.0265
         3         0.0000     -0.0001     -0.0017      0.0000      0.0000
         4         0.0000      0.0000      0.0000      0.0000      0.0000
         5        -0.0001      0.3076      0.0001      0.0946      0.2304
         6         0.0001      0.0007     -0.0272      0.0007      0.0017
         7         0.0000      0.0003     -0.0376      0.0014      0.0032
         8        -0.0001     -0.0001      0.0000      0.0000      0.0000
         9        -0.0638      0.0000     -0.0003      0.0041      0.0089
        10        -0.0001      0.0001      0.0000      0.0000      0.0000
        11         0.0001     -0.0004      0.0000      0.0000      0.0000
        12         0.0001     -0.0002      0.0000      0.0000      0.0000
        13         0.0001     -0.0001      0.0528      0.0028      0.0057
        14         0.0002      0.0000      0.0000      0.0000      0.0000
        15         0.0000      0.0001      0.0767      0.0059      0.0114
        16         0.0000      0.0001      0.0000      0.0000      0.0000
        17        -0.0003     -0.0001      0.0384      0.0015      0.0025
        18        -0.0868      0.0000      0.0000      0.0075      0.0128
        19         0.0001      0.0000     -0.0932      0.0087      0.0145
        20         0.0000      0.0000      0.0000      0.0000      0.0000
 Ground to excited state transition magnetic dipole moments (Au):
       state          X           Y           Z
         1         0.0000      0.0001      0.7628
         2         0.0000      0.0003     -0.0001
         3         0.1475     -0.0001     -0.0001
         4         0.0000      0.2011      0.0001
         5         0.0017      0.0009     -0.0001
         6        -0.8085     -0.0003     -0.0006
         7        -0.3437     -0.0001      0.0000
         8         0.0000      0.1060      0.0005
         9         0.0004      0.0026      0.3707
        10        -0.0001      0.4100      0.0001
        11        -0.0006      1.5070     -0.0009
        12         0.0004     -0.6709     -0.0002
        13         1.7566      0.0007     -0.0002
        14        -0.0001      0.2649      0.0000
        15         0.2506      0.0001      0.0002
        16         0.0001     -0.3789     -0.0001
        17         0.0378     -0.0001      0.0001
        18         0.0001      0.0000      0.1548
        19         0.6522      0.0005     -0.0002
        20         0.0001     -0.0065      0.0003
 <0|del|b> * <b|rxdel|0> + <0|del|b> * <b|delr+rdel|0>
 Rotatory Strengths (R) in cgs (10**-40 erg-esu-cm/Gauss)
       state          XX          YY          ZZ    R(velocity)
         1        -0.2134     -0.1030      0.0097     -0.1023
 Total R(velocity) tensor for State=          1
                 1             2             3 
      1  -0.213404D+00 -0.485558D-01 -0.217505D+03
      2  -0.359233D-04 -0.103015D+00 -0.859328D-01
      3   0.954741D-05 -0.154383D-03  0.965595D-02
 R(velocity) tensor in inp. orien. for State=          1
                 1             2             3 
      1  -0.213403D+00 -0.485562D-01 -0.217505D+03
      2  -0.363661D-04 -0.103015D+00 -0.868053D-01
      3   0.954803D-05 -0.154383D-03  0.965595D-02
         2         0.0552      0.0000      0.0296      0.0283
 Total R(velocity) tensor for State=          2
                 1             2             3 
      1   0.552149D-01  0.172150D-01  0.269399D+02
      2   0.192869D-01  0.167042D-04  0.133871D-01
      3   0.438322D+00  0.204376D-03  0.296177D-01
 R(velocity) tensor in inp. orien. for State=          2
                 1             2             3 
      1   0.552147D-01  0.172152D-01  0.269399D+02
      2   0.192871D-01  0.168506D-04  0.134952D-01
      3   0.438322D+00  0.206134D-03  0.296177D-01
         3         0.0004     -0.0037     -0.0078     -0.0037
 Total R(velocity) tensor for State=          3
                 1             2             3 
      1   0.423646D-03 -0.394684D-03  0.184104D-04
      2   0.148767D-01 -0.374120D-02  0.503683D-05
      3   0.500668D+00 -0.211284D-03 -0.779905D-02
 R(velocity) tensor in inp. orien. for State=          3
                 1             2             3 
      1   0.423588D-03 -0.394668D-03  0.184104D-04
      2   0.148767D-01 -0.374114D-02  0.503690D-05
      3   0.500668D+00 -0.209275D-03 -0.779905D-02
         4        -0.0113      0.0000     -0.0146     -0.0087
 Total R(velocity) tensor for State=          4
                 1             2             3 
      1  -0.113305D-01  0.119796D-04  0.954387D-05
      2   0.000000D+00  0.000000D+00  0.301192D-05
      3   0.000000D+00  0.361137D-03 -0.146306D-01
 R(velocity) tensor in inp. orien. for State=          4
                 1             2             3 
      1  -0.113305D-01  0.119342D-04  0.954386D-05
      2   0.000000D+00  0.000000D+00  0.301196D-05
      3   0.000000D+00  0.361137D-03 -0.146306D-01
         5         0.5078     -0.0003      0.2275      0.2450
 Total R(velocity) tensor for State=          5
                 1             2             3 
      1   0.507808D+00 -0.334153D-01  0.962420D+02
      2  -0.762970D+00 -0.278652D-03  0.754728D-01
      3  -0.160376D+02 -0.538306D-02  0.227494D+00
 R(velocity) tensor in inp. orien. for State=          5
                 1             2             3 
      1   0.507811D+00 -0.334132D-01  0.962420D+02
      2  -0.762968D+00 -0.281846D-03  0.758588D-01
      3  -0.160376D+02 -0.544739D-02  0.227494D+00
         6         0.0261     -0.0996     -0.1072     -0.0602
 Total R(velocity) tensor for State=          6
                 1             2             3 
      1   0.261408D-01  0.270966D-01  0.770432D-03
      2   0.667033D+00 -0.995905D-01  0.291446D-03
      3  -0.261283D+02 -0.100059D-01 -0.107177D+00
 R(velocity) tensor in inp. orien. for State=          6
                 1             2             3 
      1   0.261380D-01  0.270971D-01  0.770431D-03
      2   0.667033D+00 -0.995877D-01  0.291449D-03
      3  -0.261283D+02 -0.101107D-01 -0.107177D+00
         7        -0.0038      0.0007     -0.0093     -0.0041
 Total R(velocity) tensor for State=          7
                 1             2             3 
      1  -0.382237D-02  0.616380D-02  0.423359D-04
      2   0.100625D+00  0.682566D-03  0.575250D-04
      3  -0.176518D+02 -0.640003D-02 -0.927590D-02
 R(velocity) tensor in inp. orien. for State=          7
                 1             2             3 
      1  -0.382280D-02  0.616378D-02  0.423357D-04
      2   0.100625D+00  0.682994D-03  0.575251D-04
      3  -0.176518D+02 -0.647084D-02 -0.927590D-02
         8        -0.0065      0.0000     -0.0062     -0.0042
 Total R(velocity) tensor for State=          8
                 1             2             3 
      1  -0.650008D-02  0.172936D-01  0.242255D-03
      2  -0.752691D-05  0.150091D-04  0.229637D-04
      3   0.000000D+00  0.136147D-02 -0.616309D-02
 R(velocity) tensor in inp. orien. for State=          8
                 1             2             3 
      1  -0.650015D-02  0.172936D-01  0.242255D-03
      2  -0.755305D-05  0.150785D-04  0.229647D-04
      3   0.000000D+00  0.136147D-02 -0.616309D-02
         9        -0.2778     -0.0035     -0.0136     -0.0983
 Total R(velocity) tensor for State=          9
                 1             2             3 
      1  -0.277751D+00  0.194717D+00  0.646156D+02
      2  -0.789226D-04 -0.350586D-02  0.189682D-01
      3   0.583179D-04  0.332314D-03 -0.136307D-01
 R(velocity) tensor in inp. orien. for State=          9
                 1             2             3 
      1  -0.277752D+00  0.194716D+00  0.646156D+02
      2  -0.800227D-04 -0.350507D-02  0.192273D-01
      3   0.583166D-04  0.332314D-03 -0.136307D-01
        10         0.0511      0.0000      0.0753      0.0421
 Total R(velocity) tensor for State=         10
                 1             2             3 
      1   0.510820D-01  0.205058D-01  0.154000D-04
      2   0.127096D-04  0.338454D-05  0.329375D-04
      3   0.000000D+00 -0.392435D-02  0.752519D-01
 R(velocity) tensor in inp. orien. for State=         10
                 1             2             3 
      1   0.510819D-01  0.205060D-01  0.153998D-04
      2   0.129145D-04  0.346685D-05  0.329376D-04
      3   0.000000D+00 -0.392435D-02  0.752519D-01
        11        -0.6674      0.0000     -0.6427     -0.4367
 Total R(velocity) tensor for State=         11
                 1             2             3 
      1  -0.667447D+00 -0.108253D+00  0.337774D-03
      2  -0.239551D-03 -0.390533D-04  0.877976D-04
      3  -0.202191D-04  0.146616D-02 -0.642709D+00
 R(velocity) tensor in inp. orien. for State=         11
                 1             2             3 
      1  -0.667447D+00 -0.108256D+00  0.337774D-03
      2  -0.242228D-03 -0.394885D-04  0.877989D-04
      3  -0.202250D-04  0.146616D-02 -0.642709D+00
        12         0.1130      0.0000      0.1500      0.0877
 Total R(velocity) tensor for State=         12
                 1             2             3 
      1   0.113018D+00  0.323885D-01 -0.655436D-04
      2   0.601404D-04  0.170077D-04  0.460510D-05
      3   0.116593D-04 -0.734307D-02  0.149981D+00
 R(velocity) tensor in inp. orien. for State=         12
                 1             2             3 
      1   0.113018D+00  0.323890D-01 -0.655437D-04
      2   0.605937D-04  0.171378D-04  0.460484D-05
      3   0.116888D-04 -0.734307D-02  0.149981D+00
        13        -0.0278      0.2150      0.2296      0.1389
 Total R(velocity) tensor for State=         13
                 1             2             3 
      1  -0.278282D-01  0.279691D-03  0.616992D-04
      2   0.120559D+00  0.214987D+00 -0.293703D-04
      3  -0.104100D+03 -0.367332D-01  0.229614D+00
 R(velocity) tensor in inp. orien. for State=         13
                 1             2             3 
      1  -0.278286D-01  0.278717D-03  0.616994D-04
      2   0.120558D+00  0.214987D+00 -0.293700D-04
      3  -0.104100D+03 -0.371508D-01  0.229614D+00
        14        -0.0086      0.0000     -0.0114     -0.0067
 Total R(velocity) tensor for State=         14
                 1             2             3 
      1  -0.857351D-02 -0.507964D-01  0.121028D-03
      2  -0.536908D-05 -0.322061D-04  0.465561D-05
      3   0.000000D+00  0.981682D-03 -0.113793D-01
 R(velocity) tensor in inp. orien. for State=         14
                 1             2             3 
      1  -0.857331D-02 -0.507964D-01  0.121028D-03
      2  -0.540334D-05 -0.324099D-04  0.465609D-05
      3   0.000000D+00  0.981682D-03 -0.113793D-01
        15         0.0044      0.0012     -0.0028      0.0009
 Total R(velocity) tensor for State=         15
                 1             2             3 
      1   0.440777D-02  0.273652D-01 -0.415615D-04
      2  -0.580875D-01  0.119300D-02 -0.345482D-04
      3  -0.491357D+01 -0.386573D-02 -0.275378D-02
 R(velocity) tensor in inp. orien. for State=         15
                 1             2             3 
      1   0.440789D-02  0.273652D-01 -0.415613D-04
      2  -0.580875D-01  0.119288D-02 -0.345484D-04
      3  -0.491357D+01 -0.388544D-02 -0.275378D-02
        16        -0.0280      0.0000     -0.0439     -0.0240
 Total R(velocity) tensor for State=         16
                 1             2             3 
      1  -0.280249D-01 -0.896878D-02  0.141079D-04
      2  -0.142665D-04 -0.512735D-05  0.224315D-04
      3   0.511761D-05  0.110197D-02 -0.439310D-01
 R(velocity) tensor in inp. orien. for State=         16
                 1             2             3 
      1  -0.280249D-01 -0.896889D-02  0.141078D-04
      2  -0.143789D-04 -0.516339D-05  0.224315D-04
      3   0.511319D-05  0.110197D-02 -0.439310D-01
        17         0.0014     -0.0606      0.0446     -0.0049
 Total R(velocity) tensor for State=         17
                 1             2             3 
      1   0.137319D-02  0.449487D-02  0.174515D-04
      2   0.160175D-01 -0.605690D-01  0.450175D-04
      3   0.549984D+01  0.606418D-02  0.446458D-01
 R(velocity) tensor in inp. orien. for State=         17
                 1             2             3 
      1   0.137310D-02  0.449511D-02  0.174513D-04
      2   0.160177D-01 -0.605689D-01  0.450175D-04
      3   0.549984D+01  0.608624D-02  0.446458D-01
        18         0.0028      0.0152     -0.0166      0.0005
 Total R(velocity) tensor for State=         18
                 1             2             3 
      1   0.284951D-02  0.115199D-02  0.741347D+01
      2  -0.215269D-05  0.152330D-01  0.307033D-03
      3  -0.631991D-05 -0.479445D-03 -0.166272D-01
 R(velocity) tensor in inp. orien. for State=         18
                 1             2             3 
      1   0.284951D-02  0.115194D-02  0.741347D+01
      2  -0.220237D-05  0.152330D-01  0.336771D-03
      3  -0.631799D-05 -0.479445D-03 -0.166272D-01
        19         0.0208      0.0617      0.0473      0.0433
 Total R(velocity) tensor for State=         19
                 1             2             3 
      1   0.207706D-01 -0.170275D-02  0.188325D-04
      2  -0.269626D-01  0.616837D-01 -0.345120D-04
      3   0.530397D+02  0.394155D-01  0.473481D-01
 R(velocity) tensor in inp. orien. for State=         19
                 1             2             3 
      1   0.207707D-01 -0.170291D-02  0.188327D-04
      2  -0.269628D-01  0.616836D-01 -0.345120D-04
      3   0.530397D+02  0.396283D-01  0.473481D-01
        20         0.0004      0.0000     -0.0006      0.0000
 Total R(velocity) tensor for State=         20
                 1             2             3 
      1   0.407900D-03  0.325134D-03  0.483685D-05
      2  -0.195937D-05  0.139381D-05 -0.381670D-05
      3   0.000000D+00  0.432448D-03 -0.555408D-03
 R(velocity) tensor in inp. orien. for State=         20
                 1             2             3 
      1   0.407898D-03  0.325136D-03  0.483686D-05
      2  -0.195773D-05  0.139510D-05 -0.381668D-05
      3   0.000000D+00  0.432448D-03 -0.555408D-03
 1/2[<0|r|b>*<b|rxdel|0> + (<0|rxdel|b>*<b|r|0>)*]
 Rotatory Strengths (R) in cgs (10**-40 erg-esu-cm/Gauss)
       state          XX          YY          ZZ     R(length)     R(au)
         1         0.0420      0.0000     -0.5021     -0.1534     -0.0003
         2         0.0000      0.1594      0.0000      0.0531      0.0001
         3        -0.0266      0.0000      0.0042     -0.0075      0.0000
         4         0.0000     -0.0604      0.0000     -0.0201      0.0000
         5        -0.0007      1.2943      0.0000      0.4312      0.0009
         6        -0.2329     -0.0007     -0.0626     -0.0988     -0.0002
         7        -0.0343     -0.0001      0.0219     -0.0041      0.0000
         8         0.0000     -0.0054      0.0000     -0.0018      0.0000
         9        -0.1011     -0.0004     -0.2396     -0.1137     -0.0002
        10         0.0000      0.1099      0.0000      0.0366      0.0001
        11        -0.0002     -1.8368      0.0000     -0.6123     -0.0013
        12         0.0001      0.3201      0.0000      0.1067      0.0002
        13         0.6151      0.0000     -0.0241      0.1970      0.0004
        14         0.0000      0.0041      0.0000      0.0014      0.0000
        15        -0.0008      0.0000      0.0231      0.0074      0.0000
        16         0.0000     -0.0968      0.0000     -0.0323     -0.0001
        17        -0.0209      0.0000     -0.0122     -0.0110      0.0000
        18        -0.0059      0.0000      0.0445      0.0129      0.0000
        19         0.1712      0.0000      0.0357      0.0690      0.0001
        20         0.0000     -0.0005      0.0000     -0.0002      0.0000
  1/2[<0|del|b>*<b|r|0> + (<0|r|b>*<b|del|0>)*] (Au)
       state          X           Y           Z        Dip. S.   Osc.(frdel)
         1        -0.1343      0.0000      0.0000      0.1343      0.0895
         2         0.0000     -0.0746      0.0000      0.0746      0.0498
         3         0.0000      0.0000     -0.0001      0.0001      0.0001
         4         0.0000      0.0000      0.0000      0.0000      0.0000
         5         0.0000     -0.6081      0.0000      0.6081      0.4054
         6         0.0000      0.0000      0.0044     -0.0044     -0.0029
         7         0.0000      0.0000     -0.0275      0.0275      0.0184
         8         0.0000      0.0000      0.0000      0.0000      0.0000
         9        -0.0228      0.0000      0.0000      0.0228      0.0152
        10         0.0000      0.0000      0.0000      0.0000      0.0000
        11         0.0000      0.0000      0.0000      0.0000      0.0000
        12         0.0000      0.0000      0.0000      0.0000      0.0000
        13         0.0000      0.0000     -0.0076      0.0076      0.0051
        14         0.0000      0.0000      0.0000      0.0000      0.0000
        15         0.0000      0.0000     -0.0158      0.0158      0.0105
        16         0.0000      0.0000      0.0000      0.0000      0.0000
        17         0.0000      0.0000      0.0068     -0.0068     -0.0045
        18        -0.0145      0.0000      0.0000      0.0145      0.0097
        19         0.0000      0.0000     -0.0232      0.0232      0.0155
        20         0.0000      0.0000      0.0000      0.0000      0.0000
 Ground to excited state transition densities written to RWF  633

 Excitation energies and oscillator strengths:
 
 Excited State   1:      Singlet-A      4.9113 eV  252.45 nm  f=0.1730  <S**2>=0.000
      13 -> 14         0.69301
 This state for optimization and/or second-order correction.
 Copying the excited state density for this state as the 1-particle RhoCI density.
 
 Excited State   2:      Singlet-A      6.2071 eV  199.75 nm  f=0.0935  <S**2>=0.000
      12 -> 14        -0.25252
      13 -> 15         0.65499
 
 Excited State   3:      Singlet-A      6.4009 eV  193.70 nm  f=0.0006  <S**2>=0.000
      13 -> 17         0.69673
 
 Excited State   4:      Singlet-A      6.4746 eV  191.49 nm  f=0.0000  <S**2>=0.000
      12 -> 17        -0.10058
      13 -> 16         0.69212
 
 Excited State   5:      Singlet-A      7.4503 eV  166.41 nm  f=0.7135  <S**2>=0.000
      12 -> 14         0.64456
      13 -> 15         0.22569
 
 Excited State   6:      Singlet-A      8.0078 eV  154.83 nm  f=0.0050  <S**2>=0.000
       9 -> 15        -0.12507
      11 -> 14         0.62319
      13 -> 19        -0.27999
 
 Excited State   7:      Singlet-A      8.0523 eV  153.97 nm  f=0.1060  <S**2>=0.000
      11 -> 14         0.28795
      12 -> 16         0.19659
      13 -> 19         0.59361
 
 Excited State   8:      Singlet-A      8.1713 eV  151.73 nm  f=0.0000  <S**2>=0.000
      12 -> 17         0.30887
      13 -> 18         0.44192
      13 -> 20         0.42795
 
 Excited State   9:      Singlet-A      8.3009 eV  149.36 nm  f=0.0261  <S**2>=0.000
      12 -> 15         0.68568
 
 Excited State  10:      Singlet-A      8.3498 eV  148.49 nm  f=0.0000  <S**2>=0.000
      12 -> 17        -0.10998
      12 -> 19        -0.17298
      13 -> 18         0.49593
      13 -> 20        -0.44219
 
 Excited State  11:      Singlet-A      8.6734 eV  142.95 nm  f=0.0000  <S**2>=0.000
       9 -> 14         0.30655
      10 -> 14         0.44904
      11 -> 15        -0.43631
 
 Excited State  12:      Singlet-A      8.7864 eV  141.11 nm  f=0.0000  <S**2>=0.000
       8 -> 15         0.26324
       9 -> 14         0.51400
      10 -> 14        -0.38424
 
 Excited State  13:      Singlet-A      8.8661 eV  139.84 nm  f=0.0046  <S**2>=0.000
       8 -> 14         0.62122
       9 -> 15         0.27430
      10 -> 15        -0.16538
 
 Excited State  14:      Singlet-A      9.1165 eV  136.00 nm  f=0.0000  <S**2>=0.000
      12 -> 17         0.60416
      13 -> 18        -0.12499
      13 -> 20        -0.31138
 
 Excited State  15:      Singlet-A      9.3593 eV  132.47 nm  f=0.0097  <S**2>=0.000
      12 -> 16         0.65639
      12 -> 20        -0.10366
      13 -> 19        -0.20298
 
 Excited State  16:      Singlet-A      9.7933 eV  126.60 nm  f=0.0000  <S**2>=0.000
       8 -> 15         0.23790
       9 -> 14         0.20971
      10 -> 14         0.36556
      11 -> 15         0.50084
 
 Excited State  17:      Singlet-A     10.6243 eV  116.70 nm  f=0.0082  <S**2>=0.000
       9 -> 15        -0.10531
      12 -> 18         0.18900
      12 -> 20         0.57265
      13 -> 23        -0.29944
 
 Excited State  18:      Singlet-A     10.6596 eV  116.31 nm  f=0.0073  <S**2>=0.000
      13 -> 21         0.70535
 
 Excited State  19:      Singlet-A     10.8492 eV  114.28 nm  f=0.0165  <S**2>=0.000
       8 -> 14        -0.31899
       9 -> 15         0.47787
      10 -> 15        -0.36726
      12 -> 18         0.10654
      12 -> 20         0.10813
 
 Excited State  20:      Singlet-A     10.9928 eV  112.79 nm  f=0.0000  <S**2>=0.000
      12 -> 19         0.64342
      13 -> 18         0.14947
      13 -> 22         0.20469
 SavETr:  write IOETrn=   770 NScale= 10 NData=  16 NLR=1 LETran=     350.

 **********************************************************************

            Population analysis using the SCF density.

 **********************************************************************

 Orbital symmetries:
       Occupied  (A) (A) (A) (A) (A) (A) (A) (A) (A) (A) (A) (A)
                 (A)
       Virtual   (A) (A) (A) (A) (A) (A) (A) (A) (A) (A) (A) (A)
                 (A)
 The electronic state is 1-A.
 Alpha  occ. eigenvalues --   -1.63894  -1.14487  -1.13499  -0.84624  -0.83212
 Alpha  occ. eigenvalues --   -0.80531  -0.64660  -0.52793  -0.52267  -0.51345
 Alpha  occ. eigenvalues --   -0.47465  -0.40148  -0.31138
 Alpha virt. eigenvalues --    0.02908   0.08485   0.12175   0.12333   0.18760
 Alpha virt. eigenvalues --    0.19441   0.20217   0.25822   0.32056   0.33714
 Alpha virt. eigenvalues --    0.37816   0.41823   0.43161
          Condensed to atoms (all electrons):
              1          2          3          4          5          6
     1  C    4.055272   0.000000   0.000000   0.000000   0.000000   0.000000
     2  C    0.000000   4.055278   0.000000   0.000000   0.000000   0.000000
     3  C    0.000000   0.000000   4.059629   0.000000   0.000000   0.000000
     4  C    0.000000   0.000000   0.000000   4.011947   0.000000   0.000000
     5  C    0.000000   0.000000   0.000000   0.000000   4.059625   0.000000
     6  H    0.000000   0.000000   0.000000   0.000000   0.000000   0.961537
     7  H    0.000000   0.000000   0.000000   0.000000   0.000000   0.000000
     8  H    0.000000   0.000000   0.000000   0.000000   0.000000   0.000000
     9  H    0.000000   0.000000   0.000000   0.000000   0.000000   0.000000
    10  H    0.000000   0.000000   0.000000   0.000000   0.000000   0.000000
    11  H    0.000000   0.000000   0.000000   0.000000   0.000000   0.000000
              7          8          9         10         11
     1  C    0.000000   0.000000   0.000000   0.000000   0.000000
     2  C    0.000000   0.000000   0.000000   0.000000   0.000000
     3  C    0.000000   0.000000   0.000000   0.000000   0.000000
     4  C    0.000000   0.000000   0.000000   0.000000   0.000000
     5  C    0.000000   0.000000   0.000000   0.000000   0.000000
     6  H    0.000000   0.000000   0.000000   0.000000   0.000000
     7  H    0.961528   0.000000   0.000000   0.000000   0.000000
     8  H    0.000000   0.958688   0.000000   0.000000   0.000000
     9  H    0.000000   0.000000   0.958918   0.000000   0.000000
    10  H    0.000000   0.000000   0.000000   0.958888   0.000000
    11  H    0.000000   0.000000   0.000000   0.000000   0.958691
 Mulliken atomic charges:
              1
     1  C   -0.055272
     2  C   -0.055278
     3  C   -0.059629
     4  C   -0.011947
     5  C   -0.059625
     6  H    0.038463
     7  H    0.038472
     8  H    0.041312
     9  H    0.041082
    10  H    0.041112
    11  H    0.041309
 Sum of Mulliken atomic charges =   0.00000
 Mulliken charges with hydrogens summed into heavy atoms:
              1
     1  C   -0.016808
     2  C   -0.016806
     3  C   -0.018317
     4  C    0.070247
     5  C   -0.018316
 Sum of Mulliken charges with hydrogens summed into heavy atoms =   0.00000
 Charge=              0.0000 electrons
 Dipole moment (field-independent basis, Debye):
    X=             -0.0002    Y=              0.6842    Z=              0.0004  Tot=              0.6842
 N-N= 5.312800664230D+01 E-N= 0.000000000000D+00  KE=-1.515266571047D+02
 1|1|UNPC-DESKTOP-K2VF0AK|SP|RZINDO|STO-3G|C5H6|MELIH|11-Dec-2024|0||# 
 rzindo=(nstates=20) geom=connectivity||Title Card Required||0,1|C,0,-0
 .742108,-0.983385,-0.000052|C,0,0.742608,-0.983043,0.000125|C,0,1.1814
 95,0.271826,-0.000132|C,0,-0.000314,1.226605,-0.000056|C,0,-1.181622,0
 .271225,0.000023|H,0,-1.341832,-1.868349,0.000297|H,0,1.342745,-1.8677
 27,-0.000547|H,0,2.199961,0.595866,0.000374|H,0,-0.000436,1.862619,0.8
 80947|H,0,-0.000522,1.863506,-0.880273|H,0,-2.200264,0.59472,-0.000247
 ||Version=IA32W-G09RevA.02|State=1-A|HF=-32.4359635|RMSD=1.202e-009|PG
 =C01 [X(C5H6)]||@


 THERE IS NO CURE FOR BIRTH AND DEATH SAVE TO ENJOY THE INTERVAL.

                               -- GEORGE SANTAYANA
 Job cpu time:  0 days  0 hours  0 minutes  7.0 seconds.
 File lengths (MBytes):  RWF=     10 Int=      0 D2E=      0 Chk=      2 Scr=      1
 Normal termination of Gaussian 09 at Wed Dec 11 22:44:16 2024.
