 Entering Link 1 = C:\G09W\l1.exe PID=     17680.
  
 Copyright (c) 1988,1990,1992,1993,1995,1998,2003,2009, Gaussian, Inc.
                  All Rights Reserved.
  
 This is part of the Gaussian(R) 09 program.  It is based on
 the Gaussian(R) 03 system (copyright 2003, Gaussian, Inc.),
 the Gaussian(R) 98 system (copyright 1998, Gaussian, Inc.),
 the Gaussian(R) 94 system (copyright 1995, Gaussian, Inc.),
 the Gaussian 92(TM) system (copyright 1992, Gaussian, Inc.),
 the Gaussian 90(TM) system (copyright 1990, Gaussian, Inc.),
 the Gaussian 88(TM) system (copyright 1988, Gaussian, Inc.),
 the Gaussian 86(TM) system (copyright 1986, Carnegie Mellon
 University), and the Gaussian 82(TM) system (copyright 1983,
 Carnegie Mellon University). Gaussian is a federally registered
 trademark of Gaussian, Inc.
  
 This software contains proprietary and confidential information,
 including trade secrets, belonging to Gaussian, Inc.
  
 This software is provided under written license and may be
 used, copied, transmitted, or stored only in accord with that
 written license.
  
 The following legend is applicable only to US Government
 contracts under FAR:
  
                    RESTRICTED RIGHTS LEGEND
  
 Use, reproduction and disclosure by the US Government is
 subject to restrictions as set forth in subparagraphs (a)
 and (c) of the Commercial Computer Software - Restricted
 Rights clause in FAR 52.227-19.
  
 Gaussian, Inc.
 340 Quinnipiac St., Bldg. 40, Wallingford CT 06492
  
  
 ---------------------------------------------------------------
 Warning -- This program may not be used in any manner that
 competes with the business of Gaussian, Inc. or will provide
 assistance to any competitor of Gaussian, Inc.  The licensee
 of this program is prohibited from giving any competitor of
 Gaussian, Inc. access to this program.  By using this program,
 the user acknowledges that Gaussian, Inc. is engaged in the
 business of creating and licensing software in the field of
 computational chemistry and represents and warrants to the
 licensee that it is not a competitor of Gaussian, Inc. and that
 it will not use this program in any manner prohibited above.
 ---------------------------------------------------------------
  

 Cite this work as:
 Gaussian 09, Revision A.02,
 M. J. Frisch, G. W. Trucks, H. B. Schlegel, G. E. Scuseria, 
 M. A. Robb, J. R. Cheeseman, G. Scalmani, V. Barone, B. Mennucci, 
 G. A. Petersson, H. Nakatsuji, M. Caricato, X. Li, H. P. Hratchian, 
 A. F. Izmaylov, J. Bloino, G. Zheng, J. L. Sonnenberg, M. Hada, 
 M. Ehara, K. Toyota, R. Fukuda, J. Hasegawa, M. Ishida, T. Nakajima, 
 Y. Honda, O. Kitao, H. Nakai, T. Vreven, J. A. Montgomery, Jr., 
 J. E. Peralta, F. Ogliaro, M. Bearpark, J. J. Heyd, E. Brothers, 
 K. N. Kudin, V. N. Staroverov, R. Kobayashi, J. Normand, 
 K. Raghavachari, A. Rendell, J. C. Burant, S. S. Iyengar, J. Tomasi, 
 M. Cossi, N. Rega, J. M. Millam, M. Klene, J. E. Knox, J. B. Cross, 
 V. Bakken, C. Adamo, J. Jaramillo, R. Gomperts, R. E. Stratmann, 
 O. Yazyev, A. J. Austin, R. Cammi, C. Pomelli, J. W. Ochterski, 
 R. L. Martin, K. Morokuma, V. G. Zakrzewski, G. A. Voth, 
 P. Salvador, J. J. Dannenberg, S. Dapprich, A. D. Daniels, 
 O. Farkas, J. B. Foresman, J. V. Ortiz, J. Cioslowski, 
 and D. J. Fox, Gaussian, Inc., Wallingford CT, 2009.
 
 ******************************************
 Gaussian 09:  IA32W-G09RevA.02 11-Jun-2009
                10-Dec-2024 
 ******************************************
 %chk=C:\G09W\ethoxide\cyclohexadiene.chk
 -------------------------------------
 # opt freq hf/3-21g geom=connectivity
 -------------------------------------
 1/18=20,19=15,38=1,57=2/1,3;
 2/9=110,12=2,17=6,18=5,40=1/2;
 3/5=5,11=9,16=1,25=1,30=1,71=1/1,2,3;
 4//1;
 5/5=2,38=5/2;
 6/7=2,8=2,9=2,10=2,28=1/1;
 7//1,2,3,16;
 1/18=20,19=15/3(2);
 2/9=110/2;
 99//99;
 2/9=110/2;
 3/5=5,11=9,16=1,25=1,30=1,71=1/1,2,3;
 4/5=5,16=3/1;
 5/5=2,38=5/2;
 7//1,2,3,16;
 1/18=20,19=15/3(-5);
 2/9=110/2;
 6/7=2,8=2,9=2,10=2,19=2,28=1/1;
 99/9=1/99;
 -------------------
 Title Card Required
 -------------------
 Symbolic Z-matrix:
 Charge =  0 Multiplicity = 1
 C                     0.66264   1.26207   1.30981 
 C                     1.02979   0.09707   0.68016 
 C                     1.86429   0.22833  -0.6757 
 C                     2.37587   1.482    -0.95516 
 C                     1.5242    2.70454  -0.59847 
 C                     0.38435   2.30099   0.27954 
 H                     0.57693   1.39789   2.36769 
 H                     0.79698  -0.86014   1.09782 
 H                     2.07943  -0.62169  -1.28895 
 H                     3.36367   1.58863  -1.35238 
 H                     1.14154   3.14357  -1.49609 
 H                    -0.4024    1.93868  -0.34868 
 H                     0.03077   3.17664   0.78265 
 H                     2.13066   3.4208   -0.08458 
 

 GradGradGradGradGradGradGradGradGradGradGradGradGradGradGradGradGradGrad
 Berny optimization.
 Initialization pass.
                           ----------------------------
                           !    Initial Parameters    !
                           ! (Angstroms and Degrees)  !
 --------------------------                            --------------------------
 ! Name  Definition              Value          Derivative Info.                !
 --------------------------------------------------------------------------------
 ! R1    R(1,2)                  1.3742         estimate D2E/DX2                !
 ! R2    R(1,6)                  1.4894         estimate D2E/DX2                !
 ! R3    R(1,7)                  1.07           estimate D2E/DX2                !
 ! R4    R(2,3)                  1.5975         estimate D2E/DX2                !
 ! R5    R(2,8)                  1.07           estimate D2E/DX2                !
 ! R6    R(3,4)                  1.3826         estimate D2E/DX2                !
 ! R7    R(3,9)                  1.07           estimate D2E/DX2                !
 ! R8    R(4,5)                  1.532          estimate D2E/DX2                !
 ! R9    R(4,10)                 1.07           estimate D2E/DX2                !
 ! R10   R(5,6)                  1.4943         estimate D2E/DX2                !
 ! R11   R(5,11)                 1.07           estimate D2E/DX2                !
 ! R12   R(5,14)                 1.07           estimate D2E/DX2                !
 ! R13   R(6,12)                 1.07           estimate D2E/DX2                !
 ! R14   R(6,13)                 1.07           estimate D2E/DX2                !
 ! A1    A(2,1,6)              108.9246         estimate D2E/DX2                !
 ! A2    A(2,1,7)              125.5913         estimate D2E/DX2                !
 ! A3    A(6,1,7)              125.479          estimate D2E/DX2                !
 ! A4    A(1,2,3)              117.3091         estimate D2E/DX2                !
 ! A5    A(1,2,8)              121.4268         estimate D2E/DX2                !
 ! A6    A(3,2,8)              121.2295         estimate D2E/DX2                !
 ! A7    A(2,3,4)              116.0629         estimate D2E/DX2                !
 ! A8    A(2,3,9)              121.7494         estimate D2E/DX2                !
 ! A9    A(4,3,9)              122.012          estimate D2E/DX2                !
 ! A10   A(3,4,5)              118.0881         estimate D2E/DX2                !
 ! A11   A(3,4,10)             120.4642         estimate D2E/DX2                !
 ! A12   A(5,4,10)             121.3387         estimate D2E/DX2                !
 ! A13   A(4,5,6)              110.202          estimate D2E/DX2                !
 ! A14   A(4,5,11)             109.3242         estimate D2E/DX2                !
 ! A15   A(4,5,14)             109.3242         estimate D2E/DX2                !
 ! A16   A(6,5,11)             109.3242         estimate D2E/DX2                !
 ! A17   A(6,5,14)             109.3242         estimate D2E/DX2                !
 ! A18   A(11,5,14)            109.3258         estimate D2E/DX2                !
 ! A19   A(1,6,5)              116.8907         estimate D2E/DX2                !
 ! A20   A(1,6,12)             107.8985         estimate D2E/DX2                !
 ! A21   A(1,6,13)             107.8985         estimate D2E/DX2                !
 ! A22   A(5,6,12)             107.8985         estimate D2E/DX2                !
 ! A23   A(5,6,13)             107.8985         estimate D2E/DX2                !
 ! A24   A(12,6,13)            108.0712         estimate D2E/DX2                !
 ! D1    D(6,1,2,3)             34.1459         estimate D2E/DX2                !
 ! D2    D(6,1,2,8)           -147.9664         estimate D2E/DX2                !
 ! D3    D(7,1,2,3)           -146.644          estimate D2E/DX2                !
 ! D4    D(7,1,2,8)             31.2438         estimate D2E/DX2                !
 ! D5    D(2,1,6,5)            -62.4082         estimate D2E/DX2                !
 ! D6    D(2,1,6,12)            59.3206         estimate D2E/DX2                !
 ! D7    D(2,1,6,13)           175.8629         estimate D2E/DX2                !
 ! D8    D(7,1,6,5)            118.3805         estimate D2E/DX2                !
 ! D9    D(7,1,6,12)          -119.8907         estimate D2E/DX2                !
 ! D10   D(7,1,6,13)            -3.3483         estimate D2E/DX2                !
 ! D11   D(1,2,3,4)             12.6504         estimate D2E/DX2                !
 ! D12   D(1,2,3,9)           -172.0771         estimate D2E/DX2                !
 ! D13   D(8,2,3,4)           -165.2417         estimate D2E/DX2                !
 ! D14   D(8,2,3,9)             10.0308         estimate D2E/DX2                !
 ! D15   D(2,3,4,5)            -37.4354         estimate D2E/DX2                !
 ! D16   D(2,3,4,10)           138.8194         estimate D2E/DX2                !
 ! D17   D(9,3,4,5)            147.3056         estimate D2E/DX2                !
 ! D18   D(9,3,4,10)           -36.4396         estimate D2E/DX2                !
 ! D19   D(3,4,5,6)             12.4511         estimate D2E/DX2                !
 ! D20   D(3,4,5,11)          -107.7271         estimate D2E/DX2                !
 ! D21   D(3,4,5,14)           132.6293         estimate D2E/DX2                !
 ! D22   D(10,4,5,6)          -163.7692         estimate D2E/DX2                !
 ! D23   D(10,4,5,11)           76.0526         estimate D2E/DX2                !
 ! D24   D(10,4,5,14)          -43.591          estimate D2E/DX2                !
 ! D25   D(4,5,6,1)             38.4347         estimate D2E/DX2                !
 ! D26   D(4,5,6,12)           -83.2942         estimate D2E/DX2                !
 ! D27   D(4,5,6,13)           160.1635         estimate D2E/DX2                !
 ! D28   D(11,5,6,1)           158.6129         estimate D2E/DX2                !
 ! D29   D(11,5,6,12)           36.884          estimate D2E/DX2                !
 ! D30   D(11,5,6,13)          -79.6583         estimate D2E/DX2                !
 ! D31   D(14,5,6,1)           -81.7435         estimate D2E/DX2                !
 ! D32   D(14,5,6,12)          156.5276         estimate D2E/DX2                !
 ! D33   D(14,5,6,13)           39.9853         estimate D2E/DX2                !
 --------------------------------------------------------------------------------
 Trust Radius=3.00D-01 FncErr=1.00D-07 GrdErr=1.00D-07
 Number of steps in this run=  81 maximum allowed number of steps= 100.
 GradGradGradGradGradGradGradGradGradGradGradGradGradGradGradGradGradGrad

                          Input orientation:                          
 ---------------------------------------------------------------------
 Center     Atomic      Atomic             Coordinates (Angstroms)
 Number     Number       Type             X           Y           Z
 ---------------------------------------------------------------------
      1          6           0        0.662639    1.262074    1.309809
      2          6           0        1.029794    0.097067    0.680156
      3          6           0        1.864286    0.228326   -0.675699
      4          6           0        2.375867    1.481996   -0.955161
      5          6           0        1.524205    2.704539   -0.598473
      6          6           0        0.384347    2.300992    0.279538
      7          1           0        0.576932    1.397885    2.367689
      8          1           0        0.796982   -0.860144    1.097823
      9          1           0        2.079431   -0.621693   -1.288952
     10          1           0        3.363666    1.588629   -1.352380
     11          1           0        1.141542    3.143569   -1.496093
     12          1           0       -0.402401    1.938684   -0.348683
     13          1           0        0.030771    3.176638    0.782655
     14          1           0        2.130659    3.420796   -0.084577
 ---------------------------------------------------------------------
                    Distance matrix (angstroms):
                    1          2          3          4          5
     1  C    0.000000
     2  C    1.374230   0.000000
     3  C    2.540636   1.597482   0.000000
     4  C    2.848439   2.530652   1.382570   0.000000
     5  C    2.542547   2.945886   2.500649   1.532046   0.000000
     6  C    1.489381   2.331176   2.720044   2.482214   1.494333
     7  H    1.070000   2.178298   3.505333   3.779494   3.376801
     8  H    2.137007   1.070000   2.338650   3.491882   4.014130
     9  H    3.508481   2.344299   1.070000   2.150534   3.442217
    10  H    3.806499   3.435537   2.134587   1.070000   2.279747
    11  H    3.412105   3.745627   3.113526   2.139390   1.070000
    12  H    2.083916   2.549754   2.858345   2.880131   2.088238
    13  H    2.083916   3.239184   3.765783   3.375099   2.088238
    14  H    2.959642   3.583838   3.257643   2.139390   1.070000
                    6          7          8          9         10
     6  C    0.000000
     7  H    2.283214   0.000000
     8  H    3.291297   2.599939   0.000000
     9  H    3.724991   4.439282   2.719968   0.000000
    10  H    3.470872   4.652008   4.311363   2.557110   0.000000
    11  H    2.106216   4.277267   4.782974   3.885838   2.715939
    12  H    1.070000   2.937725   3.371103   3.687699   3.913209
    13  H    1.070000   2.444297   4.120925   4.787054   4.264778
    14  H    2.106216   3.538339   4.637156   4.218396   2.546461
                   11         12         13         14
    11  H    0.000000
    12  H    2.269815   0.000000
    13  H    2.535271   1.732078   0.000000
    14  H    1.745733   2.946659   2.285002   0.000000
 Stoichiometry    C6H8
 Framework group  C1[X(C6H8)]
 Deg. of freedom    36
 Full point group                 C1      NOp   1
 Largest Abelian subgroup         C1      NOp   1
 Largest concise Abelian subgroup C1      NOp   1
                         Standard orientation:                         
 ---------------------------------------------------------------------
 Center     Atomic      Atomic             Coordinates (Angstroms)
 Number     Number       Type             X           Y           Z
 ---------------------------------------------------------------------
      1          6           0       -1.252335   -0.678528   -0.323514
      2          6           0       -1.345332    0.649920    0.015729
      3          6           0        0.021223    1.453603    0.212119
      4          6           0        1.166776    0.822785   -0.236518
      5          6           0        1.275364   -0.693930   -0.049566
      6          6           0       -0.051577   -1.262633    0.336227
      7          1           0       -1.938173   -1.211076   -0.948748
      8          1           0       -2.293600    1.136367    0.110905
      9          1           0        0.036931    2.452232    0.596038
     10          1           0        1.923546    1.375428   -0.753031
     11          1           0        1.988486   -0.905733    0.719522
     12          1           0       -0.166051   -1.142531    1.393284
     13          1           0       -0.035291   -2.310655    0.121089
     14          1           0        1.599437   -1.141335   -0.965921
 ---------------------------------------------------------------------
 Rotational constants (GHZ):      5.1803652      4.8098693      2.7413315
 Standard basis: 3-21G (6D, 7F)
 There are    70 symmetry adapted basis functions of A   symmetry.
 Integral buffers will be    262144 words long.
 Raffenetti 1 integral format.
 Two-electron integral symmetry is turned on.
    70 basis functions,   114 primitive gaussians,    70 cartesian basis functions
    22 alpha electrons       22 beta electrons
       nuclear repulsion energy       218.3331598469 Hartrees.
 NAtoms=   14 NActive=   14 NUniq=   14 SFac= 7.50D-01 NAtFMM=   80 NAOKFM=F Big=F
 One-electron integrals computed using PRISM.
 NBasis=    70 RedAO= T  NBF=    70
 NBsUse=    70 1.00D-06 NBFU=    70
 Harris functional with IExCor=  205 diagonalized for initial guess.
 ExpMin= 1.83D-01 ExpMax= 1.72D+02 ExpMxC= 1.72D+02 IAcc=1 IRadAn=         1 AccDes= 0.00D+00
 HarFok:  IExCor=  205 AccDes= 0.00D+00 IRadAn=         1 IDoV= 1
 ScaDFX=  1.000000  1.000000  1.000000  1.000000
 FoFCou: FMM=F IPFlag=           0 FMFlag=      100000 FMFlg1=           0
         NFxFlg=           0 DoJE=T BraDBF=F KetDBF=T FulRan=T
         Omega=  0.000000  0.000000  1.000000  0.000000  0.000000 ICntrl=     500 IOpCl=  0
         NMat0=    1 NMatS0=    1 NMatT0=    0 NMatD0=    1 NMtDS0=    0 NMtDT0=    0
         I1Cent=           4 NGrid=           0.
 Petite list used in FoFCou.
 Initial guess orbital symmetries:
       Occupied  (A) (A) (A) (A) (A) (A) (A) (A) (A) (A) (A) (A)
                 (A) (A) (A) (A) (A) (A) (A) (A) (A) (A)
       Virtual   (A) (A) (A) (A) (A) (A) (A) (A) (A) (A) (A) (A)
                 (A) (A) (A) (A) (A) (A) (A) (A) (A) (A) (A) (A)
                 (A) (A) (A) (A) (A) (A) (A) (A) (A) (A) (A) (A)
                 (A) (A) (A) (A) (A) (A) (A) (A) (A) (A) (A) (A)
 The electronic state of the initial guess is 1-A.
 Requested convergence on RMS density matrix=1.00D-08 within 128 cycles.
 Requested convergence on MAX density matrix=1.00D-06.
 Requested convergence on             energy=1.00D-06.
 No special actions if energy rises.
 Keep R1 ints in memory in canonical form, NReq=3922576.
 SCF Done:  E(RHF) =  -230.464331573     A.U. after   14 cycles
             Convg  =    0.2709D-08             -V/T =  2.0024

 **********************************************************************

            Population analysis using the SCF density.

 **********************************************************************

 Orbital symmetries:
       Occupied  (A) (A) (A) (A) (A) (A) (A) (A) (A) (A) (A) (A)
                 (A) (A) (A) (A) (A) (A) (A) (A) (A) (A)
       Virtual   (A) (A) (A) (A) (A) (A) (A) (A) (A) (A) (A) (A)
                 (A) (A) (A) (A) (A) (A) (A) (A) (A) (A) (A) (A)
                 (A) (A) (A) (A) (A) (A) (A) (A) (A) (A) (A) (A)
                 (A) (A) (A) (A) (A) (A) (A) (A) (A) (A) (A) (A)
 The electronic state is 1-A.
 Alpha  occ. eigenvalues --  -11.18526 -11.18230 -11.18070 -11.16511 -11.16455
 Alpha  occ. eigenvalues --  -11.15284  -1.12479  -1.00467  -0.99276  -0.83914
 Alpha  occ. eigenvalues --   -0.78933  -0.69293  -0.67441  -0.62834  -0.59466
 Alpha  occ. eigenvalues --   -0.55957  -0.53215  -0.50106  -0.48920  -0.46079
 Alpha  occ. eigenvalues --   -0.36923  -0.27936
 Alpha virt. eigenvalues --    0.11123   0.21162   0.28247   0.30412   0.33313
 Alpha virt. eigenvalues --    0.33768   0.34794   0.35529   0.37073   0.40863
 Alpha virt. eigenvalues --    0.43142   0.44669   0.46248   0.53256   0.59980
 Alpha virt. eigenvalues --    0.68546   0.89854   0.94761   0.96150   0.97663
 Alpha virt. eigenvalues --    1.01463   1.04277   1.05767   1.07706   1.08510
 Alpha virt. eigenvalues --    1.09900   1.11480   1.14952   1.17183   1.22633
 Alpha virt. eigenvalues --    1.28586   1.30986   1.33750   1.36833   1.38201
 Alpha virt. eigenvalues --    1.39567   1.41338   1.45067   1.45155   1.51006
 Alpha virt. eigenvalues --    1.59843   1.62036   1.71068   1.97079   2.01283
 Alpha virt. eigenvalues --    2.15074   2.27181   2.64998
          Condensed to atoms (all electrons):
              1          2          3          4          5          6
     1  C    5.359806   0.530809  -0.090131  -0.021189  -0.079570   0.287334
     2  C    0.530809   5.267994   0.339008  -0.093278   0.004900  -0.157007
     3  C   -0.090131   0.339008   5.263165   0.537834  -0.098663  -0.006275
     4  C   -0.021189  -0.093278   0.537834   5.303939   0.284935  -0.082710
     5  C   -0.079570   0.004900  -0.098663   0.284935   5.499162   0.198028
     6  C    0.287334  -0.157007  -0.006275  -0.082710   0.198028   5.528476
     7  H    0.400674  -0.030810   0.002076  -0.000064   0.001913  -0.027054
     8  H   -0.039505   0.391046  -0.026512   0.000797   0.000012   0.003730
     9  H    0.001340  -0.025788   0.390335  -0.038669   0.002677  -0.000031
    10  H    0.000029   0.002487  -0.040258   0.393563  -0.032778   0.002511
    11  H    0.004102  -0.000586  -0.000229  -0.043446   0.398939  -0.046410
    12  H   -0.057279  -0.013463   0.003179   0.001746  -0.061276   0.411638
    13  H   -0.048138   0.006639  -0.000016   0.004547  -0.040561   0.389508
    14  H    0.004181   0.000444   0.003583  -0.050069   0.365828  -0.044066
              7          8          9         10         11         12
     1  C    0.400674  -0.039505   0.001340   0.000029   0.004102  -0.057279
     2  C   -0.030810   0.391046  -0.025788   0.002487  -0.000586  -0.013463
     3  C    0.002076  -0.026512   0.390335  -0.040258  -0.000229   0.003179
     4  C   -0.000064   0.000797  -0.038669   0.393563  -0.043446   0.001746
     5  C    0.001913   0.000012   0.002677  -0.032778   0.398939  -0.061276
     6  C   -0.027054   0.003730  -0.000031   0.002511  -0.046410   0.411638
     7  H    0.421802  -0.001031  -0.000020   0.000005  -0.000018   0.000854
     8  H   -0.001031   0.441982   0.000050  -0.000026   0.000001   0.000161
     9  H   -0.000020   0.000050   0.438169  -0.001376  -0.000023  -0.000106
    10  H    0.000005  -0.000026  -0.001376   0.443670  -0.000991   0.000007
    11  H   -0.000018   0.000001  -0.000023  -0.000991   0.473680  -0.004400
    12  H    0.000854   0.000161  -0.000106   0.000007  -0.004400   0.494145
    13  H   -0.002751  -0.000081  -0.000002  -0.000023  -0.001269  -0.025069
    14  H   -0.000036   0.000004  -0.000065   0.000600  -0.024099   0.004438
             13         14
     1  C   -0.048138   0.004181
     2  C    0.006639   0.000444
     3  C   -0.000016   0.003583
     4  C    0.004547  -0.050069
     5  C   -0.040561   0.365828
     6  C    0.389508  -0.044066
     7  H   -0.002751  -0.000036
     8  H   -0.000081   0.000004
     9  H   -0.000002  -0.000065
    10  H   -0.000023   0.000600
    11  H   -0.001269  -0.024099
    12  H   -0.025069   0.004438
    13  H    0.505919  -0.004928
    14  H   -0.004928   0.529398
 Mulliken atomic charges:
              1
     1  C   -0.252463
     2  C   -0.222394
     3  C   -0.277096
     4  C   -0.197936
     5  C   -0.443547
     6  C   -0.457672
     7  H    0.234460
     8  H    0.229372
     9  H    0.233509
    10  H    0.232579
    11  H    0.244750
    12  H    0.245425
    13  H    0.216226
    14  H    0.214786
 Sum of Mulliken atomic charges =   0.00000
 Mulliken charges with hydrogens summed into heavy atoms:
              1
     1  C   -0.018003
     2  C    0.006979
     3  C   -0.043587
     4  C    0.034643
     5  C    0.015989
     6  C    0.003979
 Sum of Mulliken charges with hydrogens summed into heavy atoms =   0.00000
 Electronic spatial extent (au):  <R**2>=            505.3790
 Charge=              0.0000 electrons
 Dipole moment (field-independent basis, Debye):
    X=              0.4032    Y=             -0.2734    Z=             -0.0249  Tot=              0.4878
 Quadrupole moment (field-independent basis, Debye-Ang):
   XX=            -35.5708   YY=            -35.5339   ZZ=            -39.1474
   XY=             -0.1809   XZ=             -0.0341   YZ=              1.1718
 Traceless Quadrupole moment (field-independent basis, Debye-Ang):
   XX=              1.1799   YY=              1.2168   ZZ=             -2.3967
   XY=             -0.1809   XZ=             -0.0341   YZ=              1.1718
 Octapole moment (field-independent basis, Debye-Ang**2):
  XXX=             -0.9882  YYY=              1.9234  ZZZ=              0.6828  XYY=             -0.1106
  XXY=              1.1116  XXZ=             -3.1775  XZZ=              1.7473  YZZ=             -2.7073
  YYZ=              0.9189  XYZ=             -3.9196
 Hexadecapole moment (field-independent basis, Debye-Ang**3):
 XXXX=           -307.6793 YYYY=           -288.2161 ZZZZ=            -71.9230 XXXY=             -3.2207
 XXXZ=              2.4141 YYYX=              2.0941 YYYZ=              9.6905 ZZZX=             -0.2962
 ZZZY=              0.5270 XXYY=            -98.8960 XXZZ=            -63.9699 YYZZ=            -62.4718
 XXYZ=              0.5767 YYXZ=             -0.7262 ZZXY=              1.3191
 N-N= 2.183331598469D+02 E-N=-9.723920782135D+02  KE= 2.299233957476D+02
 Calling FoFJK, ICntrl=      2127 FMM=F ISym2X=0 I1Cent= 0 IOpClX= 0 NMat=1 NMatS=1 NMatT=0.
 ***** Axes restored to original set *****
 -------------------------------------------------------------------
 Center     Atomic                   Forces (Hartrees/Bohr)
 Number     Number              X              Y              Z
 -------------------------------------------------------------------
      1        6           0.021762085   -0.064411798   -0.046321388
      2        6          -0.002810589    0.039704901   -0.007042382
      3        6          -0.017468444    0.050103226    0.024403499
      4        6          -0.035364376   -0.047733797    0.007784418
      5        6           0.049613261   -0.017822490    0.012955836
      6        6          -0.020707940    0.030428295    0.023930537
      7        1          -0.015408091   -0.003403849   -0.002022950
      8        1           0.021490263   -0.006599562    0.002761227
      9        1           0.014786308   -0.008340780    0.015271409
     10        1          -0.005969429    0.003092169   -0.021344914
     11        1          -0.000528873    0.002915641   -0.009548825
     12        1          -0.008862275   -0.002936918   -0.002448937
     13        1          -0.008793194    0.012497521    0.000191963
     14        1           0.008261294    0.012507441    0.001430508
 -------------------------------------------------------------------
 Cartesian Forces:  Max     0.064411798 RMS     0.023257837

 GradGradGradGradGradGradGradGradGradGradGradGradGradGradGradGradGradGrad
 Berny optimization.
 Internal  Forces:  Max     0.044314351 RMS     0.013682124
 Search for a local minimum.
 Step number   1 out of a maximum of   81
 All quantities printed in internal units (Hartrees-Bohrs-Radians)
 Mixed Optimization -- RFO/linear search
 Second derivative matrix not updated -- first step.
     Eigenvalues ---    0.00656   0.00972   0.01117   0.01413   0.01598
     Eigenvalues ---    0.01741   0.02006   0.04181   0.04489   0.05752
     Eigenvalues ---    0.06212   0.08904   0.09116   0.10094   0.12350
     Eigenvalues ---    0.15921   0.15966   0.15986   0.15998   0.18530
     Eigenvalues ---    0.20099   0.22013   0.23565   0.28316   0.31524
     Eigenvalues ---    0.32281   0.37230   0.37230   0.37230   0.37230
     Eigenvalues ---    0.37230   0.37230   0.37230   0.37230   0.45672
     Eigenvalues ---    0.487901000.000001000.000001000.000001000.00000
     Eigenvalues --- 1000.000001000.000001000.000001000.000001000.00000
     Eigenvalues --- 1000.000001000.000001000.000001000.000001000.00000
     Eigenvalues --- 1000.000001000.000001000.000001000.000001000.00000
     Eigenvalues --- 1000.000001000.000001000.000001000.000001000.00000
     Eigenvalues --- 1000.000001000.000001000.000001000.000001000.00000
     Eigenvalues --- 1000.000001000.000001000.000001000.000001000.00000
     Eigenvalues --- 1000.00000
 RFO step:  Lambda=-6.20282671D-02 EMin= 6.56081950D-03
 Linear search not attempted -- first point.
 Maximum step size (   0.300) exceeded in Quadratic search.
    -- Step size scaled by   0.441
 Iteration  1 RMS(Cart)=  0.04562174 RMS(Int)=  0.00131067
 Iteration  2 RMS(Cart)=  0.00151762 RMS(Int)=  0.00046748
 Iteration  3 RMS(Cart)=  0.00000117 RMS(Int)=  0.00046748
 Iteration  4 RMS(Cart)=  0.00000000 RMS(Int)=  0.00046748
 Variable       Old X    -DE/DX   Delta X   Delta X   Delta X     New X
                                 (Linear)    (Quad)   (Total)
    R1        2.59692  -0.04333   0.00000  -0.03480  -0.03466   2.56226
    R2        2.81452   0.01375   0.00000   0.01933   0.01949   2.83401
    R3        2.02201  -0.00120   0.00000  -0.00122  -0.00122   2.02079
    R4        3.01880  -0.04206   0.00000  -0.06808  -0.06827   2.95053
    R5        2.02201   0.00231   0.00000   0.00234   0.00234   2.02435
    R6        2.61268  -0.04431   0.00000  -0.03783  -0.03821   2.57447
    R7        2.02201   0.00085   0.00000   0.00086   0.00086   2.02287
    R8        2.89515  -0.00803   0.00000  -0.00913  -0.00921   2.88594
    R9        2.02201   0.00272   0.00000   0.00276   0.00276   2.02477
   R10        2.82388   0.02832   0.00000   0.03642   0.03674   2.86062
   R11        2.02201   0.00940   0.00000   0.00955   0.00955   2.03155
   R12        2.02201   0.01374   0.00000   0.01396   0.01396   2.03597
   R13        2.02201   0.00895   0.00000   0.00909   0.00909   2.03110
   R14        2.02201   0.01322   0.00000   0.01343   0.01343   2.03544
    A1        1.90109   0.02094   0.00000   0.05090   0.05008   1.95117
    A2        2.19198  -0.00905   0.00000  -0.02259  -0.02238   2.16960
    A3        2.19002  -0.01183   0.00000  -0.02792  -0.02773   2.16229
    A4        2.04743   0.00127   0.00000   0.00803   0.00726   2.05469
    A5        2.11930   0.01008   0.00000   0.01680   0.01703   2.13633
    A6        2.11585  -0.01153   0.00000  -0.02562  -0.02530   2.09055
    A7        2.02568   0.01150   0.00000   0.02350   0.02244   2.04811
    A8        2.12493  -0.01195   0.00000  -0.02473  -0.02447   2.10046
    A9        2.12951  -0.00034   0.00000  -0.00177  -0.00160   2.12791
   A10        2.06103   0.01576   0.00000   0.02704   0.02587   2.08689
   A11        2.10250  -0.00480   0.00000  -0.00713  -0.00661   2.09589
   A12        2.11776  -0.01134   0.00000  -0.02113  -0.02068   2.09708
   A13        1.92339  -0.00988   0.00000   0.00195   0.00107   1.92445
   A14        1.90807   0.00297   0.00000  -0.01509  -0.01491   1.89316
   A15        1.90807   0.00042   0.00000   0.00737   0.00699   1.91506
   A16        1.90807  -0.00701   0.00000  -0.02027  -0.01994   1.88813
   A17        1.90807   0.01691   0.00000   0.03293   0.03275   1.94082
   A18        1.90809  -0.00340   0.00000  -0.00697  -0.00683   1.90126
   A19        2.04013  -0.02256   0.00000  -0.02810  -0.02944   2.01069
   A20        1.88318   0.00123   0.00000  -0.00703  -0.00734   1.87584
   A21        1.88318   0.01395   0.00000   0.02781   0.02857   1.91175
   A22        1.88318   0.00150   0.00000  -0.00651  -0.00629   1.87689
   A23        1.88318   0.01174   0.00000   0.02311   0.02332   1.90650
   A24        1.88620  -0.00526   0.00000  -0.00880  -0.00884   1.87736
    D1        0.59596  -0.00718   0.00000  -0.05919  -0.06014   0.53582
    D2       -2.58250  -0.01285   0.00000  -0.08396  -0.08465  -2.66715
    D3       -2.55942  -0.00267   0.00000  -0.02918  -0.02992  -2.58934
    D4        0.54531  -0.00834   0.00000  -0.05396  -0.05443   0.49088
    D5       -1.08923   0.01737   0.00000   0.07207   0.07145  -1.01778
    D6        1.03534   0.00468   0.00000   0.03841   0.03823   1.07357
    D7        3.06939   0.00643   0.00000   0.03895   0.03887   3.10826
    D8        2.06613   0.01283   0.00000   0.04206   0.04133   2.10746
    D9       -2.09249   0.00015   0.00000   0.00840   0.00811  -2.08438
   D10       -0.05844   0.00189   0.00000   0.00894   0.00875  -0.04969
   D11        0.22079   0.00662   0.00000   0.02069   0.02052   0.24132
   D12       -3.00331  -0.00400   0.00000  -0.01948  -0.01876  -3.02207
   D13       -2.88401   0.01180   0.00000   0.04446   0.04343  -2.84058
   D14        0.17507   0.00117   0.00000   0.00429   0.00415   0.17922
   D15       -0.65337   0.00926   0.00000   0.05956   0.06035  -0.59302
   D16        2.42286   0.00248   0.00000   0.03778   0.03832   2.46117
   D17        2.57097   0.02051   0.00000   0.10102   0.10144   2.67241
   D18       -0.63599   0.01373   0.00000   0.07924   0.07941  -0.55658
   D19        0.21731  -0.02333   0.00000  -0.08383  -0.08339   0.13392
   D20       -1.88019  -0.01044   0.00000  -0.05055  -0.05050  -1.93069
   D21        2.31482  -0.00833   0.00000  -0.03740  -0.03742   2.27740
   D22       -2.85831  -0.01675   0.00000  -0.06243  -0.06190  -2.92021
   D23        1.32737  -0.00386   0.00000  -0.02915  -0.02901   1.29836
   D24       -0.76081  -0.00175   0.00000  -0.01599  -0.01592  -0.77673
   D25        0.67081  -0.00657   0.00000  -0.00483  -0.00505   0.66576
   D26       -1.45376   0.00626   0.00000   0.02909   0.02875  -1.42501
   D27        2.79538   0.00552   0.00000   0.03074   0.03030   2.82568
   D28        2.76832  -0.01344   0.00000  -0.03499  -0.03486   2.73346
   D29        0.64375  -0.00062   0.00000  -0.00107  -0.00106   0.64269
   D30       -1.39030  -0.00135   0.00000   0.00058   0.00049  -1.38981
   D31       -1.42669  -0.01162   0.00000  -0.03586  -0.03587  -1.46256
   D32        2.73192   0.00121   0.00000  -0.00193  -0.00207   2.72985
   D33        0.69788   0.00047   0.00000  -0.00028  -0.00051   0.69736
         Item               Value     Threshold  Converged?
 Maximum Force            0.044314     0.000450     NO 
 RMS     Force            0.013682     0.000300     NO 
 Maximum Displacement     0.170463     0.001800     NO 
 RMS     Displacement     0.045447     0.001200     NO 
 Predicted change in Energy=-2.411378D-02
 GradGradGradGradGradGradGradGradGradGradGradGradGradGradGradGradGradGrad

                          Input orientation:                          
 ---------------------------------------------------------------------
 Center     Atomic      Atomic             Coordinates (Angstroms)
 Number     Number       Type             X           Y           Z
 ---------------------------------------------------------------------
      1          6           0        0.633782    1.238140    1.280396
      2          6           0        1.047817    0.097652    0.675168
      3          6           0        1.856304    0.232785   -0.653711
      4          6           0        2.341316    1.466336   -0.968544
      5          6           0        1.542978    2.710451   -0.585013
      6          6           0        0.366021    2.329765    0.287550
      7          1           0        0.525503    1.354226    2.337903
      8          1           0        0.887188   -0.870736    1.104092
      9          1           0        2.109253   -0.637247   -1.223740
     10          1           0        3.312874    1.565012   -1.409419
     11          1           0        1.162356    3.161317   -1.483668
     12          1           0       -0.421383    1.990563   -0.360644
     13          1           0        0.008366    3.205438    0.802761
     14          1           0        2.186344    3.415654   -0.085480
 ---------------------------------------------------------------------
                    Distance matrix (angstroms):
                    1          2          3          4          5
     1  C    0.000000
     2  C    1.355890   0.000000
     3  C    2.499213   1.561355   0.000000
     4  C    2.832927   2.499645   1.362353   0.000000
     5  C    2.544422   2.942780   2.498343   1.527175   0.000000
     6  C    1.499694   2.365887   2.739386   2.495009   1.513775
     7  H    1.069356   2.148599   3.460984   3.773902   3.379059
     8  H    2.131351   1.071240   2.290593   3.445608   4.013482
     9  H    3.459016   2.296209   1.070455   2.131676   3.454812
    10  H    3.810444   3.410151   2.113651   1.071463   2.263672
    11  H    3.408526   3.749631   3.121969   2.127971   1.075051
    12  H    2.091058   2.610473   2.891977   2.876954   2.104114
    13  H    2.118853   3.279492   3.791153   3.406560   2.127430
    14  H    3.002937   3.589424   3.249994   2.145613   1.077387
                    6          7          8          9         10
     6  C    0.000000
     7  H    2.276194   0.000000
     8  H    3.343884   2.569739   0.000000
     9  H    3.758459   4.377161   2.639463   0.000000
    10  H    3.485469   4.675072   4.258470   2.516570   0.000000
    11  H    2.112544   4.274993   4.798924   3.923425   2.679259
    12  H    1.074811   2.929791   3.470568   3.748926   3.902012
    13  H    1.077109   2.459894   4.180708   4.825626   4.301687
    14  H    2.152181   3.588965   4.634224   4.210414   2.539047
                   11         12         13         14
    11  H    0.000000
    12  H    2.267174   0.000000
    13  H    2.561523   1.736121   0.000000
    14  H    1.751619   2.984433   2.361514   0.000000
 Stoichiometry    C6H8
 Framework group  C1[X(C6H8)]
 Deg. of freedom    36
 Full point group                 C1      NOp   1
 Largest Abelian subgroup         C1      NOp   1
 Largest concise Abelian subgroup C1      NOp   1
                         Standard orientation:                         
 ---------------------------------------------------------------------
 Center     Atomic      Atomic             Coordinates (Angstroms)
 Number     Number       Type             X           Y           Z
 ---------------------------------------------------------------------
      1          6           0       -1.114302   -0.876529   -0.291208
      2          6           0       -1.430447    0.408449    0.004297
      3          6           0       -0.256013    1.416229    0.211452
      4          6           0        0.983898    1.024461   -0.194926
      5          6           0        1.384545   -0.444926   -0.082474
      6          6           0        0.191686   -1.284016    0.323148
      7          1           0       -1.712736   -1.519517   -0.901098
      8          1           0       -2.442964    0.756062    0.043395
      9          1           0       -0.451526    2.411885    0.552505
     10          1           0        1.642415    1.727495   -0.664108
     11          1           0        2.134372   -0.535909    0.682520
     12          1           0        0.086070   -1.202615    1.389655
     13          1           0        0.390530   -2.317545    0.094142
     14          1           0        1.797634   -0.781867   -1.018738
 ---------------------------------------------------------------------
 Rotational constants (GHZ):      5.1697297      4.8703829      2.7354972
 Standard basis: 3-21G (6D, 7F)
 There are    70 symmetry adapted basis functions of A   symmetry.
 Integral buffers will be    262144 words long.
 Raffenetti 1 integral format.
 Two-electron integral symmetry is turned on.
    70 basis functions,   114 primitive gaussians,    70 cartesian basis functions
    22 alpha electrons       22 beta electrons
       nuclear repulsion energy       218.7078646154 Hartrees.
 NAtoms=   14 NActive=   14 NUniq=   14 SFac= 7.50D-01 NAtFMM=   80 NAOKFM=F Big=F
 One-electron integrals computed using PRISM.
 NBasis=    70 RedAO= T  NBF=    70
 NBsUse=    70 1.00D-06 NBFU=    70
 Initial guess read from the read-write file.
 B after Tr=     0.000000    0.000000    0.000000
         Rot=    1.000000    0.000000    0.000000    0.000000 Ang=   0.00 deg.
 Initial guess orbital symmetries:
       Occupied  (A) (A) (A) (A) (A) (A) (A) (A) (A) (A) (A) (A)
                 (A) (A) (A) (A) (A) (A) (A) (A) (A) (A)
       Virtual   (A) (A) (A) (A) (A) (A) (A) (A) (A) (A) (A) (A)
                 (A) (A) (A) (A) (A) (A) (A) (A) (A) (A) (A) (A)
                 (A) (A) (A) (A) (A) (A) (A) (A) (A) (A) (A) (A)
                 (A) (A) (A) (A) (A) (A) (A) (A) (A) (A) (A) (A)
 Harris functional with IExCor=  205 diagonalized for initial guess.
 ExpMin= 1.83D-01 ExpMax= 1.72D+02 ExpMxC= 1.72D+02 IAcc=1 IRadAn=         1 AccDes= 0.00D+00
 HarFok:  IExCor=  205 AccDes= 0.00D+00 IRadAn=         1 IDoV= 1
 ScaDFX=  1.000000  1.000000  1.000000  1.000000
 FoFCou: FMM=F IPFlag=           0 FMFlag=      100000 FMFlg1=           0
         NFxFlg=           0 DoJE=T BraDBF=F KetDBF=T FulRan=T
         Omega=  0.000000  0.000000  1.000000  0.000000  0.000000 ICntrl=     500 IOpCl=  0
         NMat0=    1 NMatS0=    1 NMatT0=    0 NMatD0=    1 NMtDS0=    0 NMtDT0=    0
         I1Cent=           4 NGrid=           0.
 Petite list used in FoFCou.
 Requested convergence on RMS density matrix=1.00D-08 within 128 cycles.
 Requested convergence on MAX density matrix=1.00D-06.
 Requested convergence on             energy=1.00D-06.
 No special actions if energy rises.
 Keep R1 ints in memory in canonical form, NReq=3922576.
 SCF Done:  E(RHF) =  -230.488330817     A.U. after   15 cycles
             Convg  =    0.1981D-08             -V/T =  2.0022
 Calling FoFJK, ICntrl=      2127 FMM=F ISym2X=0 I1Cent= 0 IOpClX= 0 NMat=1 NMatS=1 NMatT=0.
 ***** Axes restored to original set *****
 -------------------------------------------------------------------
 Center     Atomic                   Forces (Hartrees/Bohr)
 Number     Number              X              Y              Z
 -------------------------------------------------------------------
      1        6           0.016419545   -0.042461309   -0.032356717
      2        6          -0.004815215    0.028537405   -0.012046361
      3        6          -0.016276681    0.032084581    0.018572209
      4        6          -0.022615086   -0.032323930    0.007392249
      5        6           0.035239880   -0.014462629    0.010058842
      6        6          -0.011887128    0.022366362    0.019969197
      7        1          -0.015582203   -0.003288294   -0.000802899
      8        1           0.018009813   -0.002402287    0.003950974
      9        1           0.013475486   -0.005404439    0.012491750
     10        1          -0.007137901    0.002722199   -0.020050007
     11        1           0.001058787    0.003038593   -0.006536360
     12        1          -0.005961197   -0.002181360   -0.001744368
     13        1          -0.003385145    0.006630237   -0.000383586
     14        1           0.003457044    0.007144871    0.001485077
 -------------------------------------------------------------------
 Cartesian Forces:  Max     0.042461309 RMS     0.016611326

 GradGradGradGradGradGradGradGradGradGradGradGradGradGradGradGradGradGrad
 Berny optimization.
 Using GEDIIS/GDIIS optimizer.
 Internal  Forces:  Max     0.031663934 RMS     0.009626530
 Search for a local minimum.
 Step number   2 out of a maximum of   81
 All quantities printed in internal units (Hartrees-Bohrs-Radians)
 Mixed Optimization -- RFO/linear search
 Update second derivatives using D2CorX and points    1    2
 DE= -2.40D-02 DEPred=-2.41D-02 R= 9.95D-01
 SS=  1.41D+00  RLast= 3.00D-01 DXNew= 5.0454D-01 8.9977D-01
 Trust test= 9.95D-01 RLast= 3.00D-01 DXMaxT set to 5.05D-01
 Use linear search instead of GDIIS.
 Linear search step of   0.600 exceeds DXMaxT=   0.505 but not scaled.
 Quartic linear search produced a step of  2.00000.
 Iteration  1 RMS(Cart)=  0.08817431 RMS(Int)=  0.00538445
 Iteration  2 RMS(Cart)=  0.00568128 RMS(Int)=  0.00268631
 Iteration  3 RMS(Cart)=  0.00001802 RMS(Int)=  0.00268626
 Iteration  4 RMS(Cart)=  0.00000005 RMS(Int)=  0.00268626
 Variable       Old X    -DE/DX   Delta X   Delta X   Delta X     New X
                                 (Linear)    (Quad)   (Total)
    R1        2.56226  -0.02982  -0.06931   0.00000  -0.06854   2.49372
    R2        2.83401   0.00644   0.03898   0.00000   0.03986   2.87387
    R3        2.02079   0.00043  -0.00243   0.00000  -0.00243   2.01836
    R4        2.95053  -0.03166  -0.13654   0.00000  -0.13745   2.81309
    R5        2.02435   0.00105   0.00468   0.00000   0.00468   2.02903
    R6        2.57447  -0.02951  -0.07641   0.00000  -0.07845   2.49603
    R7        2.02287   0.00092   0.00172   0.00000   0.00172   2.02459
    R8        2.88594  -0.00582  -0.01841   0.00000  -0.01905   2.86689
    R9        2.02477   0.00203   0.00553   0.00000   0.00553   2.03030
   R10        2.86062   0.01862   0.07348   0.00000   0.07518   2.93580
   R11        2.03155   0.00636   0.01909   0.00000   0.01909   2.05064
   R12        2.03597   0.00743   0.02792   0.00000   0.02792   2.06389
   R13        2.03110   0.00611   0.01818   0.00000   0.01818   2.04928
   R14        2.03544   0.00633   0.02687   0.00000   0.02687   2.06231
    A1        1.95117   0.01240   0.10016   0.00000   0.09527   2.04645
    A2        2.16960  -0.00467  -0.04476   0.00000  -0.04322   2.12638
    A3        2.16229  -0.00777  -0.05547   0.00000  -0.05461   2.10768
    A4        2.05469   0.00300   0.01451   0.00000   0.00963   2.06432
    A5        2.13633   0.00495   0.03405   0.00000   0.03547   2.17179
    A6        2.09055  -0.00819  -0.05061   0.00000  -0.04831   2.04224
    A7        2.04811   0.00821   0.04487   0.00000   0.03896   2.08707
    A8        2.10046  -0.00764  -0.04895   0.00000  -0.04740   2.05306
    A9        2.12791  -0.00134  -0.00320   0.00000  -0.00222   2.12569
   A10        2.08689   0.00877   0.05173   0.00000   0.04464   2.13153
   A11        2.09589  -0.00139  -0.01322   0.00000  -0.00997   2.08591
   A12        2.09708  -0.00769  -0.04136   0.00000  -0.03867   2.05841
   A13        1.92445  -0.00649   0.00213   0.00000  -0.00259   1.92187
   A14        1.89316   0.00165  -0.02982   0.00000  -0.02912   1.86404
   A15        1.91506   0.00109   0.01399   0.00000   0.01201   1.92707
   A16        1.88813  -0.00470  -0.03988   0.00000  -0.03799   1.85014
   A17        1.94082   0.01057   0.06551   0.00000   0.06438   2.00520
   A18        1.90126  -0.00235  -0.01366   0.00000  -0.01285   1.88842
   A19        2.01069  -0.01372  -0.05888   0.00000  -0.06606   1.94462
   A20        1.87584   0.00013  -0.01468   0.00000  -0.01683   1.85902
   A21        1.91175   0.00891   0.05713   0.00000   0.06138   1.97313
   A22        1.87689  -0.00065  -0.01259   0.00000  -0.01155   1.86534
   A23        1.90650   0.00819   0.04663   0.00000   0.04762   1.95412
   A24        1.87736  -0.00275  -0.01768   0.00000  -0.01786   1.85949
    D1        0.53582  -0.00708  -0.12028   0.00000  -0.12574   0.41008
    D2       -2.66715  -0.01182  -0.16929   0.00000  -0.17328  -2.84043
    D3       -2.58934  -0.00394  -0.05984   0.00000  -0.06414  -2.65348
    D4        0.49088  -0.00869  -0.10885   0.00000  -0.11168   0.37920
    D5       -1.01778   0.01353   0.14290   0.00000   0.13876  -0.87901
    D6        1.07357   0.00411   0.07646   0.00000   0.07554   1.14911
    D7        3.10826   0.00564   0.07774   0.00000   0.07717  -3.09776
    D8        2.10746   0.01044   0.08266   0.00000   0.07796   2.18542
    D9       -2.08438   0.00103   0.01621   0.00000   0.01474  -2.06964
   D10       -0.04969   0.00255   0.01750   0.00000   0.01637  -0.03332
   D11        0.24132   0.00404   0.04105   0.00000   0.03974   0.28106
   D12       -3.02207  -0.00307  -0.03752   0.00000  -0.03396  -3.05603
   D13       -2.84058   0.00819   0.08687   0.00000   0.08085  -2.75973
   D14        0.17922   0.00108   0.00830   0.00000   0.00714   0.18636
   D15       -0.59302   0.00940   0.12070   0.00000   0.12462  -0.46840
   D16        2.46117   0.00493   0.07663   0.00000   0.07950   2.54067
   D17        2.67241   0.01708   0.20289   0.00000   0.20467   2.87708
   D18       -0.55658   0.01261   0.15882   0.00000   0.15955  -0.39704
   D19        0.13392  -0.01681  -0.16679   0.00000  -0.16377  -0.02985
   D20       -1.93069  -0.00835  -0.10100   0.00000  -0.10044  -2.03113
   D21        2.27740  -0.00712  -0.07484   0.00000  -0.07466   2.20274
   D22       -2.92021  -0.01266  -0.12380   0.00000  -0.12071  -3.04092
   D23        1.29836  -0.00420  -0.05801   0.00000  -0.05737   1.24099
   D24       -0.77673  -0.00297  -0.03185   0.00000  -0.03160  -0.80833
   D25        0.66576  -0.00445  -0.01010   0.00000  -0.01102   0.65474
   D26       -1.42501   0.00455   0.05750   0.00000   0.05550  -1.36951
   D27        2.82568   0.00385   0.06060   0.00000   0.05810   2.88378
   D28        2.73346  -0.00898  -0.06972   0.00000  -0.06862   2.66483
   D29        0.64269   0.00001  -0.00212   0.00000  -0.00211   0.64058
   D30       -1.38981  -0.00068   0.00099   0.00000   0.00049  -1.38931
   D31       -1.46256  -0.00852  -0.07173   0.00000  -0.07147  -1.53403
   D32        2.72985   0.00048  -0.00414   0.00000  -0.00495   2.72490
   D33        0.69736  -0.00022  -0.00103   0.00000  -0.00235   0.69501
         Item               Value     Threshold  Converged?
 Maximum Force            0.031664     0.000450     NO 
 RMS     Force            0.009627     0.000300     NO 
 Maximum Displacement     0.328524     0.001800     NO 
 RMS     Displacement     0.087788     0.001200     NO 
 Predicted change in Energy=-2.765041D-02
 GradGradGradGradGradGradGradGradGradGradGradGradGradGradGradGradGradGrad

                          Input orientation:                          
 ---------------------------------------------------------------------
 Center     Atomic      Atomic             Coordinates (Angstroms)
 Number     Number       Type             X           Y           Z
 ---------------------------------------------------------------------
      1          6           0        0.584334    1.192156    1.216058
      2          6           0        1.081323    0.102960    0.661030
      3          6           0        1.839056    0.243319   -0.612600
      4          6           0        2.271010    1.434227   -0.986463
      5          6           0        1.579979    2.714607   -0.556722
      6          6           0        0.331032    2.384013    0.306053
      7          1           0        0.431702    1.267733    2.270458
      8          1           0        1.061035   -0.871463    1.111542
      9          1           0        2.168763   -0.654093   -1.096098
     10          1           0        3.205012    1.517873   -1.510826
     11          1           0        1.204114    3.186206   -1.458873
     12          1           0       -0.455293    2.087053   -0.379147
     13          1           0       -0.038314    3.259989    0.842004
     14          1           0        2.294965    3.394777   -0.088766
 ---------------------------------------------------------------------
                    Distance matrix (angstroms):
                    1          2          3          4          5
     1  C    0.000000
     2  C    1.319621   0.000000
     3  C    2.412179   1.488622   0.000000
     4  C    2.784703   2.429375   1.320840   0.000000
     5  C    2.540062   2.924428   2.485460   1.517094   0.000000
     6  C    1.520788   2.427375   2.775002   2.517183   1.553558
     7  H    1.068068   2.090206   3.367803   3.744104   3.377119
     8  H    2.120540   1.073719   2.195614   3.343930   3.989023
     9  H    3.356354   2.200717   1.071365   2.093693   3.462041
    10  H    3.796042   3.350969   2.072952   1.074389   2.232312
    11  H    3.393467   3.743725   3.127286   2.104963   1.085153
    12  H    2.103888   2.716576   2.952608   2.868405   2.137216
    13  H    2.191699   3.354575   3.839361   3.465498   2.207430
    14  H    3.079020   3.587643   3.227064   2.156430   1.092162
                    6          7          8          9         10
     6  C    0.000000
     7  H    2.261660   0.000000
     8  H    3.432178   2.513027   0.000000
     9  H    3.817509   4.247881   2.479513   0.000000
    10  H    3.508705   4.695948   4.145163   2.441975   0.000000
    11  H    2.126206   4.264397   4.805433   3.976185   2.605691
    12  H    1.084432   2.911779   3.643380   3.861809   3.873305
    13  H    1.091326   2.496094   4.283704   4.893614   4.369203
    14  H    2.243783   3.682664   4.600449   4.174205   2.524521
                   11         12         13         14
    11  H    0.000000
    12  H    2.264416   0.000000
    13  H    2.615933   1.743806   0.000000
    14  H    1.763703   3.059148   2.515689   0.000000
 Stoichiometry    C6H8
 Framework group  C1[X(C6H8)]
 Deg. of freedom    36
 Full point group                 C1      NOp   1
 Largest Abelian subgroup         C1      NOp   1
 Largest concise Abelian subgroup C1      NOp   1
                         Standard orientation:                         
 ---------------------------------------------------------------------
 Center     Atomic      Atomic             Coordinates (Angstroms)
 Number     Number       Type             X           Y           Z
 ---------------------------------------------------------------------
      1          6           0       -0.654382   -1.234033   -0.229773
      2          6           0       -1.455335   -0.207023   -0.017346
      3          6           0       -0.842192    1.130314    0.209770
      4          6           0        0.422135    1.331614   -0.115152
      5          6           0        1.437256    0.204529   -0.143141
      6          6           0        0.768842   -1.127530    0.295476
      7          1           0       -0.961471   -2.077715   -0.808277
      8          1           0       -2.525825   -0.246612   -0.090527
      9          1           0       -1.496460    1.940779    0.460575
     10          1           0        0.726531    2.292562   -0.486949
     11          1           0        2.178794    0.431340    0.615960
     12          1           0        0.697114   -1.102495    1.377243
     13          1           0        1.382844   -1.994215    0.044775
     14          1           0        1.940529    0.169124   -1.111791
 ---------------------------------------------------------------------
 Rotational constants (GHZ):      5.1992769      4.9718206      2.7422585
 Standard basis: 3-21G (6D, 7F)
 There are    70 symmetry adapted basis functions of A   symmetry.
 Integral buffers will be    262144 words long.
 Raffenetti 1 integral format.
 Two-electron integral symmetry is turned on.
    70 basis functions,   114 primitive gaussians,    70 cartesian basis functions
    22 alpha electrons       22 beta electrons
       nuclear repulsion energy       219.8966957218 Hartrees.
 NAtoms=   14 NActive=   14 NUniq=   14 SFac= 7.50D-01 NAtFMM=   80 NAOKFM=F Big=F
 One-electron integrals computed using PRISM.
 NBasis=    70 RedAO= T  NBF=    70
 NBsUse=    70 1.00D-06 NBFU=    70
 Initial guess read from the read-write file.
 B after Tr=     0.000000    0.000000    0.000000
         Rot=    1.000000    0.000000    0.000000    0.000000 Ang=   0.00 deg.
 Initial guess orbital symmetries:
       Occupied  (A) (A) (A) (A) (A) (A) (A) (A) (A) (A) (A) (A)
                 (A) (A) (A) (A) (A) (A) (A) (A) (A) (A)
       Virtual   (A) (A) (A) (A) (A) (A) (A) (A) (A) (A) (A) (A)
                 (A) (A) (A) (A) (A) (A) (A) (A) (A) (A) (A) (A)
                 (A) (A) (A) (A) (A) (A) (A) (A) (A) (A) (A) (A)
                 (A) (A) (A) (A) (A) (A) (A) (A) (A) (A) (A) (A)
 Harris functional with IExCor=  205 diagonalized for initial guess.
 ExpMin= 1.83D-01 ExpMax= 1.72D+02 ExpMxC= 1.72D+02 IAcc=1 IRadAn=         1 AccDes= 0.00D+00
 HarFok:  IExCor=  205 AccDes= 0.00D+00 IRadAn=         1 IDoV= 1
 ScaDFX=  1.000000  1.000000  1.000000  1.000000
 FoFCou: FMM=F IPFlag=           0 FMFlag=      100000 FMFlg1=           0
         NFxFlg=           0 DoJE=T BraDBF=F KetDBF=T FulRan=T
         Omega=  0.000000  0.000000  1.000000  0.000000  0.000000 ICntrl=     500 IOpCl=  0
         NMat0=    1 NMatS0=    1 NMatT0=    0 NMatD0=    1 NMtDS0=    0 NMtDT0=    0
         I1Cent=           4 NGrid=           0.
 Petite list used in FoFCou.
 Requested convergence on RMS density matrix=1.00D-08 within 128 cycles.
 Requested convergence on MAX density matrix=1.00D-06.
 Requested convergence on             energy=1.00D-06.
 No special actions if energy rises.
 Keep R1 ints in memory in canonical form, NReq=3922576.
 SCF Done:  E(RHF) =  -230.514902843     A.U. after   15 cycles
             Convg  =    0.3562D-08             -V/T =  2.0016
 Calling FoFJK, ICntrl=      2127 FMM=F ISym2X=0 I1Cent= 0 IOpClX= 0 NMat=1 NMatS=1 NMatT=0.
 ***** Axes restored to original set *****
 -------------------------------------------------------------------
 Center     Atomic                   Forces (Hartrees/Bohr)
 Number     Number              X              Y              Z
 -------------------------------------------------------------------
      1        6          -0.001501481    0.004512595    0.003697130
      2        6          -0.005215859    0.000239205   -0.015492711
      3        6          -0.009039249   -0.011092726    0.005763906
      4        6           0.005306678    0.005886622   -0.001999515
      5        6           0.008897662   -0.004118057    0.002414065
      6        6           0.002956310    0.005361809    0.009204487
      7        1          -0.015811479   -0.002803649    0.001752080
      8        1           0.008959627    0.004073828    0.006598653
      9        1           0.010030547   -0.000790781    0.005115143
     10        1          -0.008811711    0.002247682   -0.016738410
     11        1           0.004217940    0.003292984   -0.000677405
     12        1          -0.000239296    0.000033532   -0.000503938
     13        1           0.006257236   -0.004913621   -0.000926781
     14        1          -0.006006925   -0.001929424    0.001793295
 -------------------------------------------------------------------
 Cartesian Forces:  Max     0.016738410 RMS     0.006656064

 GradGradGradGradGradGradGradGradGradGradGradGradGradGradGradGradGradGrad
 Berny optimization.
 Using GEDIIS/GDIIS optimizer.
 Internal  Forces:  Max     0.010964439 RMS     0.004435214
 Search for a local minimum.
 Step number   3 out of a maximum of   81
 All quantities printed in internal units (Hartrees-Bohrs-Radians)
 Mixed Optimization -- RFO/linear search
 Update second derivatives using D2CorX and points    2    3
 Use linear search instead of GDIIS.
     Eigenvalues ---    0.00671   0.00993   0.01111   0.01411   0.01520
     Eigenvalues ---    0.01734   0.02066   0.04160   0.04311   0.05854
     Eigenvalues ---    0.06326   0.08720   0.09195   0.09601   0.11985
     Eigenvalues ---    0.15644   0.15756   0.15937   0.16067   0.19968
     Eigenvalues ---    0.21254   0.22250   0.23630   0.28452   0.30524
     Eigenvalues ---    0.32348   0.37046   0.37230   0.37230   0.37230
     Eigenvalues ---    0.37230   0.37230   0.37230   0.37574   0.46460
     Eigenvalues ---    0.492691000.000001000.000001000.000001000.00000
     Eigenvalues --- 1000.000001000.000001000.000001000.000001000.00000
     Eigenvalues --- 1000.000001000.000001000.000001000.000001000.00000
     Eigenvalues --- 1000.000001000.000001000.000001000.000001000.00000
     Eigenvalues --- 1000.000001000.000001000.000001000.000001000.00000
     Eigenvalues --- 1000.000001000.000001000.000001000.000001000.00000
     Eigenvalues --- 1000.000001000.000001000.000001000.000001000.00000
     Eigenvalues --- 1000.00000
 RFO step:  Lambda=-2.26505238D-02 EMin= 6.70653644D-03
 Quartic linear search produced a step of  0.34824.
 Maximum step size (   0.505) exceeded in Quadratic search.
    -- Step size scaled by   0.756
 Iteration  1 RMS(Cart)=  0.08661878 RMS(Int)=  0.00433259
 Iteration  2 RMS(Cart)=  0.00524207 RMS(Int)=  0.00170386
 Iteration  3 RMS(Cart)=  0.00000744 RMS(Int)=  0.00170385
 Iteration  4 RMS(Cart)=  0.00000001 RMS(Int)=  0.00170385
 Variable       Old X    -DE/DX   Delta X   Delta X   Delta X     New X
                                 (Linear)    (Quad)   (Total)
    R1        2.49372   0.00550  -0.02387   0.02625   0.00280   2.49652
    R2        2.87387  -0.00530   0.01388  -0.01958  -0.00539   2.86848
    R3        2.01836   0.00379  -0.00085   0.00862   0.00778   2.02613
    R4        2.81309   0.00066  -0.04786   0.03657  -0.01152   2.80157
    R5        2.02903  -0.00110   0.00163  -0.00335  -0.00172   2.02731
    R6        2.49603   0.01096  -0.02732   0.03561   0.00737   2.50340
    R7        2.02459   0.00144   0.00060   0.00272   0.00331   2.02790
    R8        2.86689  -0.00005  -0.00663   0.00158  -0.00550   2.86139
    R9        2.03030   0.00068   0.00193   0.00022   0.00215   2.03245
   R10        2.93580   0.00342   0.02618  -0.00948   0.01747   2.95327
   R11        2.05064   0.00053   0.00665  -0.00312   0.00353   2.05417
   R12        2.06389  -0.00437   0.00972  -0.01547  -0.00574   2.05814
   R13        2.04928   0.00048   0.00633  -0.00304   0.00329   2.05257
   R14        2.06231  -0.00652   0.00936  -0.01980  -0.01044   2.05186
    A1        2.04645  -0.00390   0.03318  -0.01806   0.01114   2.05759
    A2        2.12638   0.00414  -0.01505   0.01847   0.00525   2.13163
    A3        2.10768  -0.00033  -0.01902   0.00032  -0.01718   2.09050
    A4        2.06432   0.00502   0.00335   0.03438   0.03326   2.09758
    A5        2.17179  -0.00516   0.01235  -0.04004  -0.02620   2.14559
    A6        2.04224  -0.00007  -0.01682   0.00298  -0.01187   2.03036
    A7        2.08707   0.00084   0.01357   0.00928   0.01795   2.10502
    A8        2.05306   0.00164  -0.01651   0.01226  -0.00215   2.05091
    A9        2.12569  -0.00253  -0.00077  -0.01881  -0.01745   2.10824
   A10        2.13153  -0.00339   0.01554  -0.01210  -0.00213   2.12940
   A11        2.08591   0.00473  -0.00347   0.01862   0.01782   2.10373
   A12        2.05841  -0.00132  -0.01347  -0.00342  -0.01434   2.04407
   A13        1.92187   0.00131  -0.00090   0.01695   0.01203   1.93389
   A14        1.86404  -0.00094  -0.01014  -0.00197  -0.01066   1.85338
   A15        1.92707   0.00196   0.00418   0.01384   0.01807   1.94513
   A16        1.85014  -0.00060  -0.01323   0.00248  -0.00972   1.84042
   A17        2.00520  -0.00123   0.02242  -0.02317  -0.00038   2.00482
   A18        1.88842  -0.00067  -0.00447  -0.00803  -0.01270   1.87572
   A19        1.94462   0.00675  -0.02301   0.04739   0.02004   1.96466
   A20        1.85902  -0.00060  -0.00586   0.00169  -0.00431   1.85471
   A21        1.97313  -0.00385   0.02138  -0.03110  -0.00762   1.96551
   A22        1.86534  -0.00581  -0.00402  -0.02719  -0.03004   1.83530
   A23        1.95412   0.00068   0.01658  -0.00669   0.01069   1.96482
   A24        1.85949   0.00233  -0.00622   0.01451   0.00795   1.86745
    D1        0.41008  -0.00730  -0.04379  -0.08272  -0.12901   0.28107
    D2       -2.84043  -0.00962  -0.06034  -0.11236  -0.17447  -3.01490
    D3       -2.65348  -0.00591  -0.02234  -0.09329  -0.11741  -2.77089
    D4        0.37920  -0.00823  -0.03889  -0.12293  -0.16288   0.21632
    D5       -0.87901   0.00773   0.04832   0.08643   0.13360  -0.74542
    D6        1.14911   0.00397   0.02631   0.07974   0.10550   1.25461
    D7       -3.09776   0.00434   0.02687   0.08147   0.10835  -2.98941
    D8        2.18542   0.00657   0.02715   0.09776   0.12331   2.30873
    D9       -2.06964   0.00281   0.00513   0.09107   0.09521  -1.97443
   D10       -0.03332   0.00318   0.00570   0.09280   0.09806   0.06474
   D11        0.28106  -0.00148   0.01384  -0.02572  -0.01306   0.26800
   D12       -3.05603  -0.00200  -0.01183  -0.01266  -0.02417  -3.08020
   D13       -2.75973   0.00102   0.02815   0.00463   0.03064  -2.72909
   D14        0.18636   0.00050   0.00249   0.01769   0.01953   0.20589
   D15       -0.46840   0.00882   0.04340   0.12337   0.16789  -0.30052
   D16        2.54067   0.00887   0.02768   0.15107   0.17962   2.72028
   D17        2.87708   0.00885   0.07127   0.10599   0.17743   3.05451
   D18       -0.39704   0.00890   0.05556   0.13369   0.18915  -0.20788
   D19       -0.02985  -0.00517  -0.05703  -0.09419  -0.15065  -0.18050
   D20       -2.03113  -0.00461  -0.03498  -0.10452  -0.13937  -2.17050
   D21        2.20274  -0.00432  -0.02600  -0.10119  -0.12756   2.07518
   D22       -3.04092  -0.00567  -0.04203  -0.12309  -0.16431   3.07796
   D23        1.24099  -0.00511  -0.01998  -0.13342  -0.15302   1.08796
   D24       -0.80833  -0.00481  -0.01100  -0.13008  -0.14121  -0.94954
   D25        0.65474   0.00084  -0.00384   0.01854   0.01334   0.66808
   D26       -1.36951   0.00138   0.01933   0.00735   0.02582  -1.34369
   D27        2.88378   0.00169   0.02023   0.00977   0.02866   2.91244
   D28        2.66483   0.00006  -0.02390   0.02586   0.00140   2.66623
   D29        0.64058   0.00060  -0.00073   0.01466   0.01388   0.65445
   D30       -1.38931   0.00090   0.00017   0.01709   0.01671  -1.37260
   D31       -1.53403  -0.00192  -0.02489   0.00385  -0.02126  -1.55529
   D32        2.72490  -0.00138  -0.00173  -0.00735  -0.00878   2.71612
   D33        0.69501  -0.00108  -0.00082  -0.00493  -0.00594   0.68907
         Item               Value     Threshold  Converged?
 Maximum Force            0.010964     0.000450     NO 
 RMS     Force            0.004435     0.000300     NO 
 Maximum Displacement     0.354794     0.001800     NO 
 RMS     Displacement     0.086074     0.001200     NO 
 Predicted change in Energy=-1.633185D-02
 GradGradGradGradGradGradGradGradGradGradGradGradGradGradGradGradGradGrad

                          Input orientation:                          
 ---------------------------------------------------------------------
 Center     Atomic      Atomic             Coordinates (Angstroms)
 Number     Number       Type             X           Y           Z
 ---------------------------------------------------------------------
      1          6           0        0.516371    1.171461    1.200188
      2          6           0        1.094945    0.109522    0.668349
      3          6           0        1.863482    0.232896   -0.593400
      4          6           0        2.238272    1.421914   -1.041406
      5          6           0        1.606942    2.703795   -0.540448
      6          6           0        0.341129    2.398321    0.323698
      7          1           0        0.247726    1.215181    2.237249
      8          1           0        1.158381   -0.834633    1.173785
      9          1           0        2.266821   -0.666321   -1.018031
     10          1           0        3.084414    1.516396   -1.698575
     11          1           0        1.237965    3.224084   -1.420658
     12          1           0       -0.438407    2.152405   -0.391579
     13          1           0       -0.001716    3.264483    0.881535
     14          1           0        2.342394    3.349854   -0.063055
 ---------------------------------------------------------------------
                    Distance matrix (angstroms):
                    1          2          3          4          5
     1  C    0.000000
     2  C    1.321104   0.000000
     3  C    2.431578   1.482526   0.000000
     4  C    2.837678   2.439843   1.324742   0.000000
     5  C    2.562656   2.907505   2.484745   1.514185   0.000000
     6  C    1.517936   2.434261   2.801374   2.532989   1.562801
     7  H    1.072183   2.098025   3.404134   3.841171   3.432061
     8  H    2.106487   1.072808   2.181680   3.341443   3.957306
     9  H    3.370758   2.195246   1.073119   2.088561   3.467161
    10  H    3.888013   3.397001   2.087932   1.075525   2.221282
    11  H    3.406287   3.752986   3.165886   2.095773   1.087021
    12  H    2.099422   2.765499   3.003987   2.849650   2.123593
    13  H    2.179609   3.346923   3.852910   3.479987   2.219051
    14  H    3.110553   3.548357   3.197820   2.164479   1.089122
                    6          7          8          9         10
     6  C    0.000000
     7  H    2.251715   0.000000
     8  H    3.441299   2.482334   0.000000
     9  H    3.860124   4.267744   2.461915   0.000000
    10  H    3.520368   4.860888   4.181793   2.428138   0.000000
    11  H    2.128139   4.289119   4.817743   4.044243   2.530378
    12  H    1.086174   2.874005   3.731285   3.956755   3.810907
    13  H    1.085799   2.469782   4.270127   4.919942   4.385997
    14  H    2.249457   3.773044   4.521238   4.128844   2.566532
                   11         12         13         14
    11  H    0.000000
    12  H    2.240027   0.000000
    13  H    2.615058   1.745920   0.000000
    14  H    1.754613   3.045434   2.528713   0.000000
 Stoichiometry    C6H8
 Framework group  C1[X(C6H8)]
 Deg. of freedom    36
 Full point group                 C1      NOp   1
 Largest Abelian subgroup         C1      NOp   1
 Largest concise Abelian subgroup C1      NOp   1
                         Standard orientation:                         
 ---------------------------------------------------------------------
 Center     Atomic      Atomic             Coordinates (Angstroms)
 Number     Number       Type             X           Y           Z
 ---------------------------------------------------------------------
      1          6           0       -0.887083   -1.120137   -0.166477
      2          6           0       -1.461117    0.062064   -0.031568
      3          6           0       -0.632689    1.272936    0.181452
      4          6           0        0.669982    1.249725   -0.058234
      5          6           0        1.440485   -0.048019   -0.180461
      6          6           0        0.560978   -1.259962    0.266762
      7          1           0       -1.383016   -1.944150   -0.640428
      8          1           0       -2.507285    0.225532   -0.203990
      9          1           0       -1.145048    2.201855    0.343262
     10          1           0        1.200440    2.157857   -0.283321
     11          1           0        2.246699    0.008534    0.546474
     12          1           0        0.558615   -1.223816    1.352332
     13          1           0        0.991656   -2.215130   -0.018073
     14          1           0        1.894602   -0.150325   -1.165093
 ---------------------------------------------------------------------
 Rotational constants (GHZ):      5.1491031      4.9820818      2.6995655
 Standard basis: 3-21G (6D, 7F)
 There are    70 symmetry adapted basis functions of A   symmetry.
 Integral buffers will be    262144 words long.
 Raffenetti 1 integral format.
 Two-electron integral symmetry is turned on.
    70 basis functions,   114 primitive gaussians,    70 cartesian basis functions
    22 alpha electrons       22 beta electrons
       nuclear repulsion energy       219.3744273890 Hartrees.
 NAtoms=   14 NActive=   14 NUniq=   14 SFac= 7.50D-01 NAtFMM=   80 NAOKFM=F Big=F
 One-electron integrals computed using PRISM.
 NBasis=    70 RedAO= T  NBF=    70
 NBsUse=    70 1.00D-06 NBFU=    70
 Initial guess read from the read-write file.
 B after Tr=     0.000000    0.000000    0.000000
         Rot=    1.000000    0.000000    0.000000    0.000000 Ang=   0.00 deg.
 Initial guess orbital symmetries:
       Occupied  (A) (A) (A) (A) (A) (A) (A) (A) (A) (A) (A) (A)
                 (A) (A) (A) (A) (A) (A) (A) (A) (A) (A)
       Virtual   (A) (A) (A) (A) (A) (A) (A) (A) (A) (A) (A) (A)
                 (A) (A) (A) (A) (A) (A) (A) (A) (A) (A) (A) (A)
                 (A) (A) (A) (A) (A) (A) (A) (A) (A) (A) (A) (A)
                 (A) (A) (A) (A) (A) (A) (A) (A) (A) (A) (A) (A)
 Harris functional with IExCor=  205 diagonalized for initial guess.
 ExpMin= 1.83D-01 ExpMax= 1.72D+02 ExpMxC= 1.72D+02 IAcc=1 IRadAn=         1 AccDes= 0.00D+00
 HarFok:  IExCor=  205 AccDes= 0.00D+00 IRadAn=         1 IDoV= 1
 ScaDFX=  1.000000  1.000000  1.000000  1.000000
 FoFCou: FMM=F IPFlag=           0 FMFlag=      100000 FMFlg1=           0
         NFxFlg=           0 DoJE=T BraDBF=F KetDBF=T FulRan=T
         Omega=  0.000000  0.000000  1.000000  0.000000  0.000000 ICntrl=     500 IOpCl=  0
         NMat0=    1 NMatS0=    1 NMatT0=    0 NMatD0=    1 NMtDS0=    0 NMtDT0=    0
         I1Cent=           4 NGrid=           0.
 Petite list used in FoFCou.
 Requested convergence on RMS density matrix=1.00D-08 within 128 cycles.
 Requested convergence on MAX density matrix=1.00D-06.
 Requested convergence on             energy=1.00D-06.
 No special actions if energy rises.
 Keep R1 ints in memory in canonical form, NReq=3922576.
 SCF Done:  E(RHF) =  -230.529833368     A.U. after   14 cycles
             Convg  =    0.5996D-08             -V/T =  2.0018
 Calling FoFJK, ICntrl=      2127 FMM=F ISym2X=0 I1Cent= 0 IOpClX= 0 NMat=1 NMatS=1 NMatT=0.
 ***** Axes restored to original set *****
 -------------------------------------------------------------------
 Center     Atomic                   Forces (Hartrees/Bohr)
 Number     Number              X              Y              Z
 -------------------------------------------------------------------
      1        6           0.007253750    0.004459011    0.001435212
      2        6           0.000144862   -0.000216498   -0.004775992
      3        6           0.000739029   -0.002336354    0.002800546
      4        6           0.003663080   -0.000737131    0.005370331
      5        6          -0.003330370   -0.000324819   -0.002661490
      6        6           0.001158427    0.000255343   -0.001050947
      7        1          -0.010550634   -0.003721937   -0.002282227
      8        1           0.002196755    0.001893768    0.003519054
      9        1           0.002722684    0.000409057    0.001605926
     10        1          -0.007721639   -0.000382654   -0.008608229
     11        1           0.003480957    0.004199763    0.001213433
     12        1          -0.002298544    0.001219948    0.001000512
     13        1           0.005265982   -0.001523141   -0.000567867
     14        1          -0.002724337   -0.003194357    0.003001739
 -------------------------------------------------------------------
 Cartesian Forces:  Max     0.010550634 RMS     0.003671294

 GradGradGradGradGradGradGradGradGradGradGradGradGradGradGradGradGradGrad
 Berny optimization.
 Using GEDIIS/GDIIS optimizer.
 Internal  Forces:  Max     0.004797789 RMS     0.002119725
 Search for a local minimum.
 Step number   4 out of a maximum of   81
 All quantities printed in internal units (Hartrees-Bohrs-Radians)
 Mixed Optimization -- RFO/linear search
 Update second derivatives using D2CorX and points    3    4
 DE= -1.49D-02 DEPred=-1.63D-02 R= 9.14D-01
 SS=  1.41D+00  RLast= 6.56D-01 DXNew= 8.4853D-01 1.9672D+00
 Trust test= 9.14D-01 RLast= 6.56D-01 DXMaxT set to 8.49D-01
 Use linear search instead of GDIIS.
     Eigenvalues ---    0.00695   0.00953   0.01035   0.01378   0.01490
     Eigenvalues ---    0.01643   0.02336   0.04171   0.04785   0.05884
     Eigenvalues ---    0.06370   0.08795   0.09295   0.09870   0.12117
     Eigenvalues ---    0.15634   0.15747   0.15936   0.16008   0.20397
     Eigenvalues ---    0.21811   0.22541   0.23726   0.28587   0.30662
     Eigenvalues ---    0.32646   0.37038   0.37228   0.37230   0.37230
     Eigenvalues ---    0.37230   0.37230   0.37238   0.37580   0.46935
     Eigenvalues ---    0.505661000.000001000.000001000.000001000.00000
     Eigenvalues --- 1000.000001000.000001000.000001000.000001000.00000
     Eigenvalues --- 1000.000001000.000001000.000001000.000001000.00000
     Eigenvalues --- 1000.000001000.000001000.000001000.000001000.00000
     Eigenvalues --- 1000.000001000.000001000.000001000.000001000.00000
     Eigenvalues --- 1000.000001000.000001000.000001000.000001000.00000
     Eigenvalues --- 1000.000001000.000001000.000001000.000001000.00000
     Eigenvalues --- 1000.00000
 RFO step:  Lambda=-9.37851291D-03 EMin= 6.94707878D-03
 Quartic linear search produced a step of  1.02238.
 Iteration  1 RMS(Cart)=  0.10311697 RMS(Int)=  0.03625564
 Iteration  2 RMS(Cart)=  0.02701196 RMS(Int)=  0.00284133
 Iteration  3 RMS(Cart)=  0.00100663 RMS(Int)=  0.00263010
 Iteration  4 RMS(Cart)=  0.00000075 RMS(Int)=  0.00263010
 Variable       Old X    -DE/DX   Delta X   Delta X   Delta X     New X
                                 (Linear)    (Quad)   (Total)
    R1        2.49652   0.00033   0.00286  -0.01108  -0.00742   2.48911
    R2        2.86848  -0.00181  -0.00551   0.00735   0.00224   2.87073
    R3        2.02613   0.00028   0.00795  -0.00716   0.00080   2.02693
    R4        2.80157  -0.00123  -0.01178  -0.02018  -0.03180   2.76977
    R5        2.02731   0.00012  -0.00176   0.00324   0.00148   2.02879
    R6        2.50340   0.00100   0.00754  -0.01953  -0.01306   2.49034
    R7        2.02790   0.00005   0.00339  -0.00291   0.00048   2.02838
    R8        2.86139   0.00167  -0.00562   0.00920   0.00247   2.86386
    R9        2.03245  -0.00085   0.00219  -0.00538  -0.00318   2.02927
   R10        2.95327  -0.00360   0.01786  -0.02385  -0.00523   2.94804
   R11        2.05417  -0.00015   0.00361  -0.00107   0.00254   2.05671
   R12        2.05814  -0.00242  -0.00587  -0.00075  -0.00662   2.05152
   R13        2.05257   0.00071   0.00337   0.00321   0.00658   2.05915
   R14        2.05186  -0.00317  -0.01068   0.00035  -0.01033   2.04154
    A1        2.05759   0.00062   0.01139   0.02764   0.03154   2.08913
    A2        2.13163  -0.00021   0.00537  -0.01840  -0.01235   2.11928
    A3        2.09050  -0.00031  -0.01757   0.00075  -0.01603   2.07447
    A4        2.09758   0.00039   0.03401  -0.01513   0.01235   2.10993
    A5        2.14559  -0.00268  -0.02679   0.00178  -0.02304   2.12255
    A6        2.03036   0.00226  -0.01214   0.02628   0.01655   2.04691
    A7        2.10502  -0.00063   0.01835  -0.00360   0.00575   2.11077
    A8        2.05091   0.00117  -0.00219   0.00965   0.00925   2.06016
    A9        2.10824  -0.00040  -0.01784   0.01558  -0.00027   2.10797
   A10        2.12940   0.00030  -0.00218   0.01627   0.00360   2.13300
   A11        2.10373   0.00005   0.01821  -0.01459   0.00626   2.10999
   A12        2.04407  -0.00024  -0.01466   0.00812  -0.00390   2.04017
   A13        1.93389  -0.00043   0.01229  -0.00966  -0.00460   1.92930
   A14        1.85338   0.00184  -0.01090   0.05237   0.04397   1.89735
   A15        1.94513   0.00016   0.01847  -0.02991  -0.01067   1.93446
   A16        1.84042   0.00003  -0.00993   0.02979   0.02108   1.86151
   A17        2.00482  -0.00079  -0.00039  -0.03168  -0.03063   1.97419
[...]
 ! A23   A(5,6,13)             109.8212         -DE/DX =    0.0                 !
 ! A24   A(12,6,13)            107.5027         -DE/DX =    0.0                 !
 ! D1    D(6,1,2,3)              1.7135         -DE/DX =    0.0                 !
 ! D2    D(6,1,2,8)           -177.6398         -DE/DX =    0.0                 !
 ! D3    D(7,1,2,3)            178.6446         -DE/DX =    0.0                 !
 ! D4    D(7,1,2,8)             -0.7088         -DE/DX =    0.0                 !
 ! D5    D(2,1,6,5)            -31.5507         -DE/DX =    0.0                 !
 ! D6    D(2,1,6,12)            88.741          -DE/DX =    0.0                 !
 ! D7    D(2,1,6,13)          -153.5957         -DE/DX =    0.0                 !
 ! D8    D(7,1,6,5)            151.4304         -DE/DX =    0.0                 !
 ! D9    D(7,1,6,12)           -88.2779         -DE/DX =    0.0                 !
 ! D10   D(7,1,6,13)            29.3854         -DE/DX =    0.0                 !
 ! D11   D(1,2,3,4)             15.1474         -DE/DX =    0.0                 !
 ! D12   D(1,2,3,9)           -165.5203         -DE/DX =    0.0                 !
 ! D13   D(8,2,3,4)           -165.4802         -DE/DX =    0.0                 !
 ! D14   D(8,2,3,9)             13.8522         -DE/DX =    0.0                 !
 ! D15   D(2,3,4,5)              1.6739         -DE/DX =    0.0                 !
 ! D16   D(2,3,4,10)           178.5993         -DE/DX =    0.0                 !
 ! D17   D(9,3,4,5)           -177.638          -DE/DX =    0.0                 !
 ! D18   D(9,3,4,10)            -0.7126         -DE/DX =    0.0                 !
 ! D19   D(3,4,5,6)            -31.5175         -DE/DX =    0.0                 !
 ! D20   D(3,4,5,11)          -153.5792         -DE/DX =    0.0                 !
 ! D21   D(3,4,5,14)            88.7635         -DE/DX =    0.0                 !
 ! D22   D(10,4,5,6)           151.4688         -DE/DX =    0.0                 !
 ! D23   D(10,4,5,11)           29.407          -DE/DX =    0.0                 !
 ! D24   D(10,4,5,14)          -88.2502         -DE/DX =    0.0                 !
 ! D25   D(4,5,6,1)             44.1552         -DE/DX =    0.0                 !
 ! D26   D(4,5,6,12)           -75.684          -DE/DX =    0.0                 !
 ! D27   D(4,5,6,13)           166.5599         -DE/DX =    0.0                 !
 ! D28   D(11,5,6,1)           166.5732         -DE/DX =    0.0                 !
 ! D29   D(11,5,6,12)           46.734          -DE/DX =    0.0                 !
 ! D30   D(11,5,6,13)          -71.0221         -DE/DX =    0.0                 !
 ! D31   D(14,5,6,1)           -75.6862         -DE/DX =    0.0                 !
 ! D32   D(14,5,6,12)          164.4747         -DE/DX =    0.0                 !
 ! D33   D(14,5,6,13)           46.7185         -DE/DX =    0.0                 !
 --------------------------------------------------------------------------------
 GradGradGradGradGradGradGradGradGradGradGradGradGradGradGradGradGradGrad

 1|1|UNPC-DESKTOP-K2VF0AK|Freq|RHF|3-21G|C6H8|MELIH|10-Dec-2024|0||#N G
 eom=AllCheck Guess=TCheck SCRF=Check GenChk RHF/3-21G Freq||Title Card
  Required||0,1|C,0.4820534335,1.1688641816,1.1453976428|C,1.2453292255
 ,0.163800701,0.7514455561|C,1.9920277737,0.238801673,-0.5190968495|C,2
 .1571326919,1.3960430465,-1.1367260328|C,1.6135572279,2.6785874229,-0.
 5312076766|C,0.3276737477,2.406646418,0.2785105219|H,-0.0812394227,1.1
 140165598,2.0572835324|H,1.3321137091,-0.7306108485,1.3376623619|H,2.4
 039662023,-0.6677612432,-0.9185011478|H,2.7176734911,1.4633103117,-2.0
 495121763|H,1.4120600894,3.4074709148,-1.3069384112|H,-0.5039630043,2.
 250034281,-0.4060654322|H,0.0889327414,3.2689437615,0.8893227283|H,2.3
 714010434,3.10120986,0.126075963||Version=IA32W-G09RevA.02|State=1-A|H
 F=-230.5432311|RMSD=1.315e-009|RMSF=3.991e-005|ZeroPoint=0.1320464|The
 rmal=0.1368774|Dipole=-0.0404358,0.1470257,-0.0151561|DipoleDeriv=-0.1
 132019,-0.121101,-0.1238172,-0.1203159,-0.0059382,-0.054694,0.0058224,
 -0.0919512,-0.076172,-0.1496779,-0.0361943,-0.0276136,0.0818578,-0.014
 1665,-0.2323893,-0.1284962,-0.1381574,0.0725486,-0.0770877,-0.0427927,
 -0.1444837,-0.1726564,-0.0216184,0.1937571,-0.1588665,0.0674634,0.0071
 002,-0.1813091,-0.0197699,-0.1388442,0.0022464,0.0790029,-0.0476864,-0
 .0488133,0.0505679,-0.0927639,0.0677872,0.0151198,0.1441969,0.0703036,
 0.0760983,-0.0570786,0.0837803,-0.0378355,0.1049754,0.0997354,0.017514
 3,0.0930215,-0.047089,0.0759146,0.1269134,0.0626451,0.0824797,0.073367
 ,0.0681481,0.030888,0.1136596,0.0294409,0.0530636,0.03747,0.117928,0.0
 584902,-0.0601801,0.1251138,0.0469196,0.0327851,0.0421777,-0.0582777,0
 .1083282,0.0485309,0.1014013,0.0176858,0.1068978,0.0757144,0.0751406,0
 .082881,-0.0716204,-0.0538728,0.0838467,-0.0400673,0.0493666,0.0770309
 ,0.014727,0.1236763,0.0180507,0.034249,0.0096449,0.1376684,-0.0063701,
 -0.0502634,0.0599768,0.0327985,-0.0256727,0.0137906,-0.0534952,0.09895
 26,-0.0125485,0.129065,-0.0474925,-0.0783473,-0.0220698,-0.0732941,0.0
 055654,0.0163555,-0.0275241,-0.1456344,0.042466,-0.00484,0.0462096,0.0
 409233,0.0259231,0.0636951,-0.0840091,-0.0875476,0.0486739,-0.107721,-
 0.0032901,-0.0512757,-0.032677,-0.0746777,-0.0699477,-0.0255584,-0.014
 2732,-0.0945369,-0.1098311,0.0099584|Polar=43.2861382,-7.3888302,61.96
 01053,-14.4997383,-5.4060272,51.1058445|PolarDeriv=-8.9430187,2.953358
 8,0.2369714,2.2102167,0.8361375,1.761391,2.6962675,-3.345088,2.9458723
 ,-4.3937726,4.1544337,4.6950857,-2.932329,-0.5581148,3.4826197,-0.8556
 316,1.9193797,3.2288941,11.6415969,-2.6850626,-2.0099205,-5.2672844,-0
 .8474792,2.569416,-1.8484537,2.508792,-2.4458848,3.985849,-4.9079272,-
 3.1023353,-1.4516762,-0.5978663,-1.8574246,5.338602,-0.7443095,-8.0485
 257,-5.5546551,-4.8433386,-1.7185044,4.785915,-1.4202894,-0.0492033,-2
 .6238705,-4.3109376,-3.393095,3.3739524,5.600315,-4.2443507,2.8023223,
 -0.5873895,0.7584476,-4.8528881,-3.1522952,9.6171155,3.5017353,3.42998
 34,2.057721,-1.4345811,1.5529598,-4.6593293,2.4858534,4.167761,5.02585
 25,-3.4816628,-5.0002381,3.9869983,1.5112626,1.8159181,-2.3995091,0.14
 70685,2.9775584,-5.1478319,-0.7168954,-1.7974626,-1.1693343,-2.8594033
 ,-2.4546582,1.4794739,-0.8501682,-1.8203392,-2.6330316,-1.9363665,2.39
 85232,-0.9225651,-4.0201921,-3.4600921,1.6391703,-0.1615059,-2.7780788
 ,1.3728706,2.8953399,-1.1454665,0.3747807,3.8107515,0.8728978,-0.73611
 9,-0.3437534,1.5159252,-2.5904539,1.6306434,-3.0820251,-0.355736,5.730
 3837,0.9595726,-3.5338547,1.6171675,-1.1037006,-0.3964947,-2.8750253,-
 0.2409908,-0.7483143,3.3793442,-0.0668519,-3.0426431,0.1807002,-1.2614
 794,0.018833,0.4096992,1.1867629,-0.547059,2.2671445,0.2756093,-0.0338
 495,-3.6627746,-0.7632312,7.4030216,-0.4049616,-1.6842519,0.7158856,1.
 064658,0.1286066,0.7169234,-0.9127395,0.6738004,-7.2004748,0.0698112,3
 .5113118,-1.7812186,-0.5552349,-0.3023492,3.4003611,0.9206957,-3.05974
 57,2.7391737,2.5607246,-1.9597771,2.0507537,-1.3630942,0.8771836,-0.16
 07727,-1.0019357,2.5560338,-7.6755274,0.7994052,-2.1410801,-1.2135093,
 0.0317851,1.3253458,-2.2381617,0.3287214,-2.3880321,-1.3252078,3.10845
 5,-0.1431601,0.0204065,-3.1859262,-0.5883851,3.2913157,0.1114117,0.879
 4453,0.9169804,-0.1327285,-1.5520745,0.2402552,-2.2018485,-0.3785083,-
 0.3097603,3.8530759,0.0917531,-7.2152812,-0.6866577,1.8490131,-0.17022
 39,-1.0402275,0.655779,-0.5417494,0.3542924,-0.0241881,5.8769408,0.357
 3337,-3.5983718,1.7748907,0.3401409,0.5989187,-2.5873956,-0.3983052,3.
 5222011,-4.5523994,-7.5226919,0.937452,-0.6636263,-2.8329807,0.1631229
 ,-0.9263406,-0.3343819,-2.2769036,0.3816633,-0.3316846,-0.6491512,-0.1
 436963,-3.4723616,0.2774473,-0.070813,-3.1290215,0.5210642,-2.6697624,
 -1.9504426,2.4808879,-1.0255026,0.8094476,-0.6853595,-0.2555657,1.0586
 565,-2.0750023,6.5129411,-0.9780536,3.0506039,1.1554219,-0.2480397,-0.
 9591579,2.3668601,-1.2310505,2.7621166,2.9459761,4.9464965,2.848815,2.
 0489074,1.9231644,0.9763361,0.553203,1.0281212,2.8121805,4.2593841,0.6
 275743,1.0289174,0.4578184,2.198643,1.5906663,1.3833096,2.0858464,2.19
 532,2.0484516|HyperPolar=-11.3305022,10.0761306,13.8480993,-10.0503494
 ,-7.4317193,8.8925221,9.5634117,-4.9843796,8.949674,-3.0341445|PG=C01 
 [X(C6H8)]|NImag=0||0.51014257,-0.27578336,0.67746553,-0.27651832,0.014
 34808,0.60852919,-0.26344092,0.22368471,0.10300144,0.43495899,0.230906
 69,-0.40692040,-0.09517388,-0.28030994,0.82931730,0.10619823,-0.092149
 45,-0.16256900,-0.19772397,-0.07497936,0.54341734,-0.01330939,0.010808
 67,0.03300040,-0.12063291,0.00670533,0.06377830,0.31434046,0.01862496,
 0.01388160,-0.02557709,0.01017556,-0.12445356,0.00466010,-0.07778372,0
 .94204610,0.02293194,-0.01524558,-0.01776442,0.06037127,0.01552420,-0.
 19627994,-0.20949937,-0.12007978,0.55137071,0.00087040,0.00126973,0.00
 148442,0.00515928,-0.02196483,0.01768486,-0.10602878,-0.04685738,0.057
 40363,0.33711790,0.00351561,-0.00721772,-0.00598394,-0.01292564,0.0050
 5050,0.01983727,-0.04053703,-0.50494624,0.19835867,0.01916547,0.809265
 19,-0.00232811,0.00696793,-0.00203791,0.01940241,0.03342265,-0.0274181
 0,0.05178772,0.19892638,-0.22196337,-0.25334734,-0.19380202,0.64987329
 ,0.00621324,-0.00190784,0.00195302,-0.00780621,0.00127422,-0.00527363,
 0.01094837,-0.00284629,-0.00164193,-0.10373308,0.03419116,0.02334307,0
 .53234544,-0.02688292,-0.00456036,0.02210077,0.00181034,-0.00091225,-0
 .00317500,0.01221040,-0.03902419,-0.01512375,0.02674182,-0.17036866,-0
 .02522118,0.01022166,0.58324853,0.02306103,0.00775451,-0.01836807,-0.0
 0375814,-0.00097364,-0.00076810,-0.00414765,0.01330162,0.01308659,0.01
 912213,-0.03326018,-0.11547200,0.06875754,-0.05788935,0.59486682,-0.09
 473541,0.01027864,0.00646640,0.00241334,0.02549409,-0.01482957,-0.0041
 3254,-0.00458177,-0.00555976,-0.01117556,0.00144107,0.01328829,-0.1562
 5233,-0.01449151,0.03303247,0.55167904,0.01633884,-0.16354497,0.043886
 69,0.01177885,-0.02845237,0.02081410,-0.00470206,-0.00421963,0.0003898
 6,0.02920182,0.00769120,-0.02139148,-0.01285054,-0.09704884,0.01219088
 ,-0.02577975,0.59350326,-0.00259154,0.04826631,-0.13113543,0.00041250,
 -0.00410453,0.01105385,-0.00306096,-0.00068804,-0.00112689,0.01893927,
 0.00035429,-0.01321819,0.03516270,0.00389500,-0.10752805,0.03302698,0.
 08426806,0.56526429,-0.14138265,0.00199098,0.14111181,-0.00227787,-0.0
 0267990,0.02276283,0.00692041,0.00791573,0.00493127,-0.00040403,0.0005
 8357,-0.00130389,0.00145684,0.00060062,-0.00086382,0.00683671,0.000973
 24,-0.00284551,0.13631305,-0.00353228,-0.06533598,0.02104858,0.0202425
 6,0.00654545,-0.02719877,0.00614238,-0.00166787,0.00296964,0.00001835,
 -0.00014305,-0.00100273,0.00309385,-0.00451388,0.00328617,-0.01547238,
 0.00098861,0.02379313,-0.00478229,0.06403632,0.14386976,0.01611540,-0.
 28424003,0.00709284,0.00497321,-0.00385910,0.00512440,0.00110679,0.004
 62741,-0.00088090,0.00036006,-0.00000921,-0.00134045,0.00208282,-0.001
 08615,0.01156938,-0.00270991,-0.00882473,-0.16089376,-0.02021086,0.294
 83789,0.00542440,0.02274218,-0.01240257,-0.05831517,0.02479589,-0.0049
 1648,0.00497446,-0.01690327,0.01173951,-0.00124117,0.00119819,0.003171
 39,-0.00013773,0.00072641,-0.00021182,0.00608275,0.00635461,0.00793986
 ,-0.00547415,-0.00360439,-0.00405585,0.04935187,0.00196007,-0.01952028
 ,0.02076467,0.02724494,-0.27711149,0.13936111,0.00164671,0.00311597,-0
 .00264630,0.00074549,0.00067114,-0.00043509,0.00011148,0.00091498,-0.0
 0052224,0.00604648,0.00147332,-0.00058854,-0.00292936,-0.00054053,-0.0
 0252815,-0.03448350,0.29206521,0.00430271,-0.01172450,0.01264011,-0.00
 617308,0.14221749,-0.15798444,-0.00386306,0.02763159,-0.01046696,0.003
 71506,-0.00202732,-0.00497943,-0.00041375,-0.00012778,-0.00029868,0.00
 648930,0.00140155,0.00304933,-0.00425726,-0.00200038,-0.00133480,-0.00
 025791,-0.15498534,0.15855584,-0.00015158,-0.00116245,0.00304245,-0.00
 325492,0.01656400,0.00607468,-0.09966661,0.10294845,0.05124818,0.00990
 762,-0.00596619,0.00091974,0.00962255,0.00011468,0.00699120,0.00054720
 ,-0.00102218,-0.00021239,-0.00079272,0.00046676,0.00008550,-0.00006177
 ,-0.00076715,-0.00019563,0.09081622,-0.00069881,0.00020202,0.00097571,
 -0.00300387,0.00639289,0.00492241,0.10044895,-0.28448485,-0.09188476,0
 .01589663,-0.02466461,-0.01610749,0.00024366,-0.00130363,0.00548651,-0
 .00043744,0.00028332,0.00020023,-0.00033013,0.00006035,0.00000033,0.00
 021750,0.00068038,-0.00077551,-0.11090737,0.30335387,0.00259623,0.0025
 9542,-0.00559888,0.01194745,-0.02804847,-0.00551496,0.05210042,-0.0948
 3856,-0.10933872,-0.00555884,0.01919774,0.01330947,0.00672572,0.003022
 62,0.00229034,-0.00029744,-0.00027362,-0.00035127,0.00134344,-0.000999
 93,-0.00004555,-0.00065136,0.00050217,0.00058418,-0.06284848,0.0984512
 8,0.10587082,0.00004562,-0.00080294,-0.00150449,0.01026937,0.00057919,
 0.00604932,0.00691979,0.00454411,0.00552889,-0.13682760,-0.01147210,0.
 14481007,-0.00203923,-0.00064390,0.01036413,0.00147520,0.00325525,0.00
 045369,-0.00102531,-0.00064597,-0.00068259,-0.00054843,0.00010784,0.00
 061154,-0.00653723,-0.00186565,-0.00468810,0.12969448,-0.00009623,-0.0
 0057211,0.00028582,0.00225855,-0.00489913,0.00198978,-0.01923352,0.002
 82532,0.03276753,-0.00579587,-0.07065642,0.01349566,0.01684774,0.00581
 866,-0.02378964,0.00065375,-0.00549340,-0.00236963,-0.00023339,0.00016
 843,-0.00009755,-0.00086010,0.00007588,0.00148449,-0.00119126,0.000861
 71,-0.00099059,0.00667805,0.07050876,-0.00056287,-0.00070065,-0.000029
 43,0.00494032,0.00359467,0.00450972,0.01311812,-0.00162126,-0.00933066
 ,0.14355703,0.01882792,-0.28342207,0.00583706,0.00545102,-0.00479347,-
 0.00008045,-0.00144647,-0.00012433,-0.00063159,-0.00044153,-0.00052795
 ,0.00021415,0.00002660,-0.00030424,-0.00491964,-0.00047046,-0.00167379
 ,-0.16174924,-0.02234100,0.29493462,-0.00674850,0.00057029,0.00368816,
 -0.00031893,-0.00040771,0.00008231,-0.00119831,0.00258448,0.00183900,-
 0.00337183,0.00906125,-0.01195846,-0.06888916,0.03781871,-0.03997289,0
 .00501644,-0.02621437,0.02610891,0.00059814,-0.00138586,0.00113978,0.0
 0018824,0.00003774,-0.00001686,0.00073615,0.00056632,0.00008730,0.0005
 3372,-0.00007189,0.00019920,0.07621107,-0.00143025,0.00060048,0.000634
 28,0.00075688,0.00110574,-0.00007124,0.00318059,-0.00335651,-0.0046476
 9,0.00541697,-0.02487982,0.02592323,0.03711056,-0.18208997,0.13435270,
 0.00168304,-0.00374521,0.00344046,0.00013754,-0.00019104,0.00016321,-0
 .00003640,-0.00002287,0.00006097,-0.00128661,-0.00147702,0.00002677,-0
 .00034063,0.00150255,-0.00057956,-0.04221671,0.20078297,0.00397306,-0.
 00097204,-0.00075836,0.00032931,0.00026791,0.00043045,0.00137054,-0.00
 258885,-0.00233678,0.00490454,-0.01578020,0.01492091,-0.03949232,0.137
 55961,-0.20531117,-0.00417276,0.01332625,-0.01448772,-0.00015020,0.000
 77484,-0.00047834,-0.00017710,0.00000685,-0.00004267,-0.00085784,-0.00
 073229,-0.00016630,-0.00062184,0.00075462,0.00112841,0.04008904,-0.148
 17401,0.22371537,-0.00156143,0.00448816,-0.00388560,0.00213670,-0.0004
 9218,-0.00181498,0.00005653,0.00024568,0.00151156,0.00133628,0.0000739
 9,-0.00051650,-0.02666978,-0.00758029,-0.02042291,-0.21197810,-0.03179
 638,-0.12642340,-0.00091850,0.00036538,-0.00074175,-0.00009322,0.00015
 963,0.00009089,-0.00010562,0.00005293,-0.00004252,-0.00062755,0.000051
 81,-0.00026079,0.00216134,-0.00038405,-0.00031627,0.23371407,0.0285508
 8,0.00143169,0.02232812,-0.00015955,-0.00224655,0.00198996,-0.00012148
 ,0.00075933,0.00219154,-0.00021210,0.00051817,-0.00063109,-0.00648446,
 -0.00194556,-0.00418685,-0.02709588,-0.06256121,-0.02507269,-0.0008458
 8,-0.00076176,0.00021691,-0.00193066,-0.00125486,-0.00144110,0.0000078
 5,0.00000051,-0.00010924,-0.00014604,0.00015734,-0.00006955,-0.0004109
 7,-0.00000966,-0.00020246,0.03554750,0.06958537,-0.01754429,0.00261677
 ,-0.01495973,0.00245230,-0.00008422,-0.00140199,-0.00209668,-0.0015270
 3,0.00015487,-0.00188561,0.00139126,0.00048063,0.01862392,0.00462063,0
 .01353968,-0.13139505,-0.02889053,-0.16582759,0.00054166,0.00085383,-0
 .00060491,0.00103392,0.00076222,0.00077690,0.00004703,0.00003321,0.000
 11987,0.00039839,0.00009974,0.00035756,-0.00077488,-0.00047537,0.00171
 227,0.14299573,0.02384772,0.18168157,-0.00251774,0.00360824,0.00134906
 ,0.00080856,-0.00040544,-0.00055572,0.00018189,-0.00011721,0.00004464,
 -0.00554079,-0.00346671,0.00397743,-0.00948575,0.02859049,0.01937620,-
 0.06952850,0.04570240,0.03312429,0.00062027,-0.00042961,-0.00007005,-0
 .00010108,0.00022067,0.00005130,0.00014025,0.00006404,0.00001429,-0.00
 022625,0.00162359,0.00078196,0.00059880,-0.00046374,-0.00003717,0.0074
 3276,-0.02524804,-0.01705294,0.07630109,0.00818303,-0.02634391,-0.0199
 3789,-0.00096915,-0.00375504,0.00515921,-0.00119182,0.00057111,0.00001
 254,-0.00153562,-0.00018824,0.00117828,-0.00400768,0.00806172,0.006010
 38,0.04666383,-0.23684650,-0.12715846,-0.00025268,0.00134510,0.0005439
 8,0.00181597,-0.00051074,0.00018584,0.00010320,0.00000086,-0.00006390,
 -0.00008359,0.00048204,0.00026082,0.00069648,0.00013088,-0.00041689,0.
 00018325,-0.00452431,-0.00377532,-0.05063562,0.26061793,-0.00642594,0.
 02427772,0.01554150,0.00021379,0.00318362,-0.00394784,0.00064505,-0.00
 009182,0.00046477,0.00301928,0.00259939,-0.00117655,0.00431483,-0.0164
 3267,-0.01180128,0.03502755,-0.12970184,-0.14991671,-0.00013052,-0.001
 03539,0.00119865,-0.00148169,0.00026105,-0.00029513,-0.00016168,-0.000
 10281,-0.00001863,0.00030104,-0.00084124,-0.00032849,-0.00032795,0.000
 19812,-0.00045755,0.00548435,-0.02031404,-0.01463747,-0.03987298,0.137
 79272,0.16378506,0.00115139,0.00021498,-0.00078616,0.00030069,-0.00005
 942,0.00248383,0.00062663,0.00205068,-0.00084883,0.01393137,0.00513734
 ,0.00875419,-0.18557318,-0.06923651,-0.11132747,-0.02624824,-0.0112397
 3,-0.02003440,-0.00047020,-0.00047650,-0.00021632,-0.00004899,-0.00010
 103,-0.00008324,-0.00119953,-0.00024677,-0.00072812,-0.00110656,-0.000
 63124,-0.00044327,-0.00551717,-0.00212720,-0.00484100,-0.00488346,-0.0
 0145118,0.00465650,0.00131649,0.00103039,-0.00060513,0.20772077,0.0003
 4378,0.00043440,0.00030008,-0.00058426,0.00033889,-0.00116011,0.002426
 60,-0.00104659,-0.00258612,-0.02209049,-0.02013145,-0.02132307,-0.0749
 9754,-0.09627656,-0.06176087,-0.00440217,-0.00202757,-0.00423559,-0.00
 014804,0.00000983,-0.00001623,-0.00003245,-0.00003611,0.00010002,0.002
 09827,0.00009420,0.00152832,0.00083637,-0.00077965,-0.00049053,0.01937
 225,0.01164947,0.01617666,-0.00091544,0.00085150,0.00052711,0.00095695
 ,0.00095910,0.00020718,0.07713616,0.10596051,-0.00096189,-0.00214991,0
 .00075048,-0.00250844,0.00018035,0.00033209,0.00174277,0.00138598,-0.0
 0109659,-0.00815753,-0.01007294,-0.00888749,-0.11655576,-0.06076272,-0
 .15835647,0.01743466,0.00813643,0.01317345,0.00038554,0.00016341,0.000
 34681,0.00005592,0.00002098,0.00009998,0.00078689,0.00000365,0.0005334
 2,0.00072919,-0.00044798,-0.00039589,-0.02018266,-0.01085188,-0.017868
 52,0.00434218,0.00145277,-0.00139166,-0.00113029,0.00020869,0.00158968
 ,0.12401943,0.07273316,0.17117071||0.00006610,-0.00002114,0.00010627,-
 0.00004976,0.00003352,-0.00003830,0.00003102,0.00002366,-0.00002068,-0
 .00006528,-0.00003586,-0.00003461,-0.00008467,-0.00007209,0.00003813,0
 .00005777,0.00002970,-0.00011350,0.00001176,-0.00000830,-0.00002705,-0
 .00001265,-0.00002132,0.00000415,0.00001531,0.00000174,0.00002242,0.00
 001476,0.00001047,0.00002000,0.00001711,0.00001854,-0.00000627,-0.0000
 0169,0.00000048,0.00000907,-0.00001427,0.00001656,0.00000980,0.0000144
 7,0.00002404,0.00003058|||@


 "MATHEMATICS IS THE ART OF GIVING THE SAME NAME
 TO DIFFERENT THINGS."
                    - H. POINCARE
 Job cpu time:  0 days  0 hours  0 minutes  7.0 seconds.
 File lengths (MBytes):  RWF=     13 Int=      0 D2E=      0 Chk=      1 Scr=      1
 Normal termination of Gaussian 09 at Tue Dec 10 11:25:43 2024.
