 Entering Link 1 = C:\G09W\l1.exe PID=     21672.
  
 Copyright (c) 1988,1990,1992,1993,1995,1998,2003,2009, Gaussian, Inc.
                  All Rights Reserved.
  
 This is part of the Gaussian(R) 09 program.  It is based on
 the Gaussian(R) 03 system (copyright 2003, Gaussian, Inc.),
 the Gaussian(R) 98 system (copyright 1998, Gaussian, Inc.),
 the Gaussian(R) 94 system (copyright 1995, Gaussian, Inc.),
 the Gaussian 92(TM) system (copyright 1992, Gaussian, Inc.),
 the Gaussian 90(TM) system (copyright 1990, Gaussian, Inc.),
 the Gaussian 88(TM) system (copyright 1988, Gaussian, Inc.),
 the Gaussian 86(TM) system (copyright 1986, Carnegie Mellon
 University), and the Gaussian 82(TM) system (copyright 1983,
 Carnegie Mellon University). Gaussian is a federally registered
 trademark of Gaussian, Inc.
  
 This software contains proprietary and confidential information,
 including trade secrets, belonging to Gaussian, Inc.
  
 This software is provided under written license and may be
 used, copied, transmitted, or stored only in accord with that
 written license.
  
 The following legend is applicable only to US Government
 contracts under FAR:
  
                    RESTRICTED RIGHTS LEGEND
  
 Use, reproduction and disclosure by the US Government is
 subject to restrictions as set forth in subparagraphs (a)
 and (c) of the Commercial Computer Software - Restricted
 Rights clause in FAR 52.227-19.
  
 Gaussian, Inc.
 340 Quinnipiac St., Bldg. 40, Wallingford CT 06492
  
  
 ---------------------------------------------------------------
 Warning -- This program may not be used in any manner that
 competes with the business of Gaussian, Inc. or will provide
 assistance to any competitor of Gaussian, Inc.  The licensee
 of this program is prohibited from giving any competitor of
 Gaussian, Inc. access to this program.  By using this program,
 the user acknowledges that Gaussian, Inc. is engaged in the
 business of creating and licensing software in the field of
 computational chemistry and represents and warrants to the
 licensee that it is not a competitor of Gaussian, Inc. and that
 it will not use this program in any manner prohibited above.
 ---------------------------------------------------------------
  

 Cite this work as:
 Gaussian 09, Revision A.02,
 M. J. Frisch, G. W. Trucks, H. B. Schlegel, G. E. Scuseria, 
 M. A. Robb, J. R. Cheeseman, G. Scalmani, V. Barone, B. Mennucci, 
 G. A. Petersson, H. Nakatsuji, M. Caricato, X. Li, H. P. Hratchian, 
 A. F. Izmaylov, J. Bloino, G. Zheng, J. L. Sonnenberg, M. Hada, 
 M. Ehara, K. Toyota, R. Fukuda, J. Hasegawa, M. Ishida, T. Nakajima, 
 Y. Honda, O. Kitao, H. Nakai, T. Vreven, J. A. Montgomery, Jr., 
 J. E. Peralta, F. Ogliaro, M. Bearpark, J. J. Heyd, E. Brothers, 
 K. N. Kudin, V. N. Staroverov, R. Kobayashi, J. Normand, 
 K. Raghavachari, A. Rendell, J. C. Burant, S. S. Iyengar, J. Tomasi, 
 M. Cossi, N. Rega, J. M. Millam, M. Klene, J. E. Knox, J. B. Cross, 
 V. Bakken, C. Adamo, J. Jaramillo, R. Gomperts, R. E. Stratmann, 
 O. Yazyev, A. J. Austin, R. Cammi, C. Pomelli, J. W. Ochterski, 
 R. L. Martin, K. Morokuma, V. G. Zakrzewski, G. A. Voth, 
 P. Salvador, J. J. Dannenberg, S. Dapprich, A. D. Daniels, 
 O. Farkas, J. B. Foresman, J. V. Ortiz, J. Cioslowski, 
 and D. J. Fox, Gaussian, Inc., Wallingford CT, 2009.
 
 ******************************************
 Gaussian 09:  IA32W-G09RevA.02 11-Jun-2009
                10-Dec-2024 
 ******************************************
 %chk=C:\G09W\ethoxide\Cyclopentadiene.chk
 -------------------------------------
 # opt freq hf/3-21g geom=connectivity
 -------------------------------------
 1/18=20,19=15,38=1,57=2/1,3;
 2/9=110,12=2,17=6,18=5,40=1/2;
 3/5=5,11=9,16=1,25=1,30=1,71=1/1,2,3;
 4//1;
 5/5=2,38=5/2;
 6/7=2,8=2,9=2,10=2,28=1/1;
 7//1,2,3,16;
 1/18=20,19=15/3(2);
 2/9=110/2;
 99//99;
 2/9=110/2;
 3/5=5,11=9,16=1,25=1,30=1,71=1/1,2,3;
 4/5=5,16=3/1;
 5/5=2,38=5/2;
 7//1,2,3,16;
 1/18=20,19=15/3(-5);
 2/9=110/2;
 6/7=2,8=2,9=2,10=2,19=2,28=1/1;
 99/9=1/99;
 -------------------
 Title Card Required
 -------------------
 Symbolic Z-matrix:
 Charge =  0 Multiplicity = 1
 C                     1.06265  -1.95974   0.13319 
 C                     2.58451  -1.95974   0.13319 
 C                     3.05328  -0.51187   0.13319 
 C                     1.82554   0.3777    0. 
 C                     0.59344  -0.51542   0.0296 
 H                     0.67069  -2.56218  -0.72432 
 H                     2.97313  -2.49433  -0.77009 
 H                     3.76524  -0.32869  -0.71003 
 H                     1.78986   1.12377   0.83298 
 H                     1.86466   0.95528  -0.95774 
 H                    -0.0183   -0.36779  -0.89561 
 

 GradGradGradGradGradGradGradGradGradGradGradGradGradGradGradGradGradGrad
 Berny optimization.
 Initialization pass.
                           ----------------------------
                           !    Initial Parameters    !
                           ! (Angstroms and Degrees)  !
 --------------------------                            --------------------------
 ! Name  Definition              Value          Derivative Info.                !
 --------------------------------------------------------------------------------
 ! R1    R(1,2)                  1.5219         estimate D2E/DX2                !
 ! R2    R(1,5)                  1.5222         estimate D2E/DX2                !
 ! R3    R(1,6)                  1.1189         estimate D2E/DX2                !
 ! R4    R(2,3)                  1.5219         estimate D2E/DX2                !
 ! R5    R(2,7)                  1.1193         estimate D2E/DX2                !
 ! R6    R(3,4)                  1.522          estimate D2E/DX2                !
 ! R7    R(3,8)                  1.1187         estimate D2E/DX2                !
 ! R8    R(4,5)                  1.522          estimate D2E/DX2                !
 ! R9    R(4,9)                  1.1188         estimate D2E/DX2                !
 ! R10   R(4,10)                 1.1191         estimate D2E/DX2                !
 ! R11   R(5,11)                 1.1189         estimate D2E/DX2                !
 ! A1    A(2,1,5)              107.9539         estimate D2E/DX2                !
 ! A2    A(2,1,6)              110.5067         estimate D2E/DX2                !
 ! A3    A(5,1,6)              110.5339         estimate D2E/DX2                !
 ! A4    A(1,2,3)              107.9403         estimate D2E/DX2                !
 ! A5    A(1,2,7)              110.3173         estimate D2E/DX2                !
 ! A6    A(3,2,7)              110.332          estimate D2E/DX2                !
 ! A7    A(2,3,4)              107.9138         estimate D2E/DX2                !
 ! A8    A(2,3,8)              110.5985         estimate D2E/DX2                !
 ! A9    A(4,3,8)              110.5928         estimate D2E/DX2                !
 ! A10   A(3,4,5)              107.9592         estimate D2E/DX2                !
 ! A11   A(3,4,9)              110.5072         estimate D2E/DX2                !
 ! A12   A(3,4,10)             110.3864         estimate D2E/DX2                !
 ! A13   A(5,4,9)              110.5486         estimate D2E/DX2                !
 ! A14   A(5,4,10)             110.3522         estimate D2E/DX2                !
 ! A15   A(9,4,10)             107.1046         estimate D2E/DX2                !
 ! A16   A(1,5,4)              107.9735         estimate D2E/DX2                !
 ! A17   A(1,5,11)             110.4863         estimate D2E/DX2                !
 ! A18   A(4,5,11)             110.431          estimate D2E/DX2                !
 ! D1    D(5,1,2,3)              4.1024         estimate D2E/DX2                !
 ! D2    D(5,1,2,7)           -116.5164         estimate D2E/DX2                !
 ! D3    D(6,1,2,3)            125.0901         estimate D2E/DX2                !
 ! D4    D(6,1,2,7)              4.4713         estimate D2E/DX2                !
 ! D5    D(2,1,5,4)             -1.3604         estimate D2E/DX2                !
 ! D6    D(2,1,5,11)           119.5013         estimate D2E/DX2                !
 ! D7    D(6,1,5,4)           -122.3312         estimate D2E/DX2                !
 ! D8    D(6,1,5,11)            -1.4694         estimate D2E/DX2                !
 ! D9    D(1,2,3,4)             -5.2768         estimate D2E/DX2                !
 ! D10   D(1,2,3,8)           -126.3669         estimate D2E/DX2                !
 ! D11   D(7,2,3,4)            115.3328         estimate D2E/DX2                !
 ! D12   D(7,2,3,8)             -5.7574         estimate D2E/DX2                !
 ! D13   D(2,3,4,5)              4.4355         estimate D2E/DX2                !
 ! D14   D(2,3,4,9)            125.4449         estimate D2E/DX2                !
 ! D15   D(2,3,4,10)          -116.2609         estimate D2E/DX2                !
 ! D16   D(8,3,4,5)            125.5291         estimate D2E/DX2                !
 ! D17   D(8,3,4,9)           -113.4615         estimate D2E/DX2                !
 ! D18   D(8,3,4,10)             4.8327         estimate D2E/DX2                !
 ! D19   D(3,4,5,1)             -1.9007         estimate D2E/DX2                !
 ! D20   D(3,4,5,11)          -122.7969         estimate D2E/DX2                !
 ! D21   D(9,4,5,1)           -122.8844         estimate D2E/DX2                !
 ! D22   D(9,4,5,11)           116.2194         estimate D2E/DX2                !
 ! D23   D(10,4,5,1)           118.8171         estimate D2E/DX2                !
 ! D24   D(10,4,5,11)           -2.0791         estimate D2E/DX2                !
 --------------------------------------------------------------------------------
 Trust Radius=3.00D-01 FncErr=1.00D-07 GrdErr=1.00D-07
 Number of steps in this run=  63 maximum allowed number of steps= 100.
 GradGradGradGradGradGradGradGradGradGradGradGradGradGradGradGradGradGrad

                          Input orientation:                          
 ---------------------------------------------------------------------
 Center     Atomic      Atomic             Coordinates (Angstroms)
 Number     Number       Type             X           Y           Z
 ---------------------------------------------------------------------
      1          6           0        1.062649   -1.959735    0.133186
      2          6           0        2.584507   -1.959735    0.133186
      3          6           0        3.053280   -0.511870    0.133186
      4          6           0        1.825540    0.377698    0.000000
      5          6           0        0.593443   -0.515415    0.029596
      6          1           0        0.670687   -2.562180   -0.724322
      7          1           0        2.973134   -2.494333   -0.770094
      8          1           0        3.765241   -0.328694   -0.710030
      9          1           0        1.789863    1.123768    0.832984
     10          1           0        1.864661    0.955283   -0.957736
     11          1           0       -0.018303   -0.367793   -0.895607
 ---------------------------------------------------------------------
                    Distance matrix (angstroms):
                    1          2          3          4          5
     1  C    0.000000
     2  C    1.521858   0.000000
     3  C    2.461488   1.521861   0.000000
     4  C    2.462384   2.461171   1.521977   0.000000
     5  C    1.522152   2.461936   2.462020   1.522035   0.000000
     6  H    1.118881   2.181964   3.258196   3.240557   2.182569
     7  H    2.179831   1.119259   2.180022   3.187253   3.196647
     8  H    3.267310   2.182989   1.118685   2.183019   3.262241
     9  H    3.244464   3.260240   2.182029   1.118819   2.182607
    10  H    3.214135   3.194623   2.180703   1.119104   2.180315
    11  H    2.182006   3.219831   3.242498   2.181198   1.118940
                    6          7          8          9         10
     6  H    0.000000
     7  H    2.303901   0.000000
     8  H    3.816403   2.306737   0.000000
     9  H    4.154993   4.130453   2.897008   0.000000
    10  H    3.721908   3.628191   2.306981   1.800183   0.000000
    11  H    2.306378   3.672414   3.788294   2.912429   2.302161
                   11
    11  H    0.000000
 Stoichiometry    C5H6
 Framework group  C1[X(C5H6)]
 Deg. of freedom    27
 Full point group                 C1      NOp   1
 Largest Abelian subgroup         C1      NOp   1
 Largest concise Abelian subgroup C1      NOp   1
                         Standard orientation:                         
 ---------------------------------------------------------------------
 Center     Atomic      Atomic             Coordinates (Angstroms)
 Number     Number       Type             X           Y           Z
 ---------------------------------------------------------------------
      1          6           0       -1.148259   -0.676501   -0.179196
      2          6           0       -1.036502    0.840561   -0.133537
      3          6           0        0.441844    1.201285   -0.112731
      4          6           0        1.237918   -0.092004   -0.012300
      5          6           0        0.256962   -1.253604   -0.083007
      6          1           0       -1.783721   -1.048248    0.663351
      7          1           0       -1.547292    1.240595    0.778497
      8          1           0        0.671028    1.872577    0.752310
      9          1           0        1.985042   -0.157845   -0.842496
     10          1           0        1.810243   -0.123849    0.948858
     11          1           0        0.352921   -1.901654    0.824103
 ---------------------------------------------------------------------
 Rotational constants (GHZ):      7.8097834      7.3993605      4.0809274
 Standard basis: 3-21G (6D, 7F)
 There are    57 symmetry adapted basis functions of A   symmetry.
 Integral buffers will be    262144 words long.
 Raffenetti 1 integral format.
 Two-electron integral symmetry is turned on.
    57 basis functions,    93 primitive gaussians,    57 cartesian basis functions
    18 alpha electrons       18 beta electrons
       nuclear repulsion energy       150.3264290236 Hartrees.
 NAtoms=   11 NActive=   11 NUniq=   11 SFac= 7.50D-01 NAtFMM=   80 NAOKFM=F Big=F
 One-electron integrals computed using PRISM.
 NBasis=    57 RedAO= T  NBF=    57
 NBsUse=    57 1.00D-06 NBFU=    57
 Harris functional with IExCor=  205 diagonalized for initial guess.
 ExpMin= 1.83D-01 ExpMax= 1.72D+02 ExpMxC= 1.72D+02 IAcc=1 IRadAn=         1 AccDes= 0.00D+00
 HarFok:  IExCor=  205 AccDes= 0.00D+00 IRadAn=         1 IDoV= 1
 ScaDFX=  1.000000  1.000000  1.000000  1.000000
 FoFCou: FMM=F IPFlag=           0 FMFlag=      100000 FMFlg1=           0
         NFxFlg=           0 DoJE=T BraDBF=F KetDBF=T FulRan=T
         Omega=  0.000000  0.000000  1.000000  0.000000  0.000000 ICntrl=     500 IOpCl=  0
         NMat0=    1 NMatS0=    1 NMatT0=    0 NMatD0=    1 NMtDS0=    0 NMtDT0=    0
         I1Cent=           4 NGrid=           0.
 Petite list used in FoFCou.
 Initial guess orbital symmetries:
       Occupied  (A) (A) (A) (A) (A) (A) (A) (A) (A) (A) (A) (A)
                 (A) (A) (A) (A) (A) (A)
       Virtual   (A) (A) (A) (A) (A) (A) (A) (A) (A) (A) (A) (A)
                 (A) (A) (A) (A) (A) (A) (A) (A) (A) (A) (A) (A)
                 (A) (A) (A) (A) (A) (A) (A) (A) (A) (A) (A) (A)
                 (A) (A) (A)
 The electronic state of the initial guess is 1-A.
 Requested convergence on RMS density matrix=1.00D-08 within 128 cycles.
 Requested convergence on MAX density matrix=1.00D-06.
 Requested convergence on             energy=1.00D-06.
 No special actions if energy rises.
 Keep R1 ints in memory in canonical form, NReq=2195637.
 SCF Done:  E(RHF) =  -191.498636645     A.U. after   16 cycles
             Convg  =    0.5411D-08             -V/T =  2.0067

 **********************************************************************

            Population analysis using the SCF density.

 **********************************************************************

 Orbital symmetries:
       Occupied  (A) (A) (A) (A) (A) (A) (A) (A) (A) (A) (A) (A)
                 (A) (A) (A) (A) (A) (A)
       Virtual   (A) (A) (A) (A) (A) (A) (A) (A) (A) (A) (A) (A)
                 (A) (A) (A) (A) (A) (A) (A) (A) (A) (A) (A) (A)
                 (A) (A) (A) (A) (A) (A) (A) (A) (A) (A) (A) (A)
                 (A) (A) (A)
 The electronic state is 1-A.
 Alpha  occ. eigenvalues --  -11.21695 -11.21635 -11.20731 -11.20473 -11.19562
 Alpha  occ. eigenvalues --   -1.12413  -0.96298  -0.93946  -0.74394  -0.71549
 Alpha  occ. eigenvalues --   -0.66846  -0.58097  -0.52032  -0.51670  -0.48942
 Alpha  occ. eigenvalues --   -0.48707  -0.37851  -0.28112
 Alpha virt. eigenvalues --    0.04319   0.11572   0.21922   0.29871   0.31161
 Alpha virt. eigenvalues --    0.31897   0.37200   0.38085   0.39210   0.39771
 Alpha virt. eigenvalues --    0.51355   0.52370   0.60911   0.91535   0.99993
 Alpha virt. eigenvalues --    1.00352   1.01523   1.01712   1.03321   1.04683
 Alpha virt. eigenvalues --    1.05828   1.09044   1.09392   1.15096   1.18217
 Alpha virt. eigenvalues --    1.19080   1.24035   1.25568   1.26567   1.29820
 Alpha virt. eigenvalues --    1.30076   1.35009   1.39556   1.42992   1.66699
 Alpha virt. eigenvalues --    2.01275   2.10045   2.48537   2.55060
          Condensed to atoms (all electrons):
              1          2          3          4          5          6
     1  C    5.432707   0.269755  -0.116364  -0.106297   0.479052   0.370099
     2  C    0.269755   5.435635   0.479516  -0.109370  -0.117454  -0.048754
     3  C   -0.116364   0.479516   5.473337   0.247743  -0.130911   0.004258
     4  C   -0.106297  -0.109370   0.247743   5.592609   0.248627   0.005383
     5  C    0.479052  -0.117454  -0.130911   0.248627   5.471301  -0.046529
     6  H    0.370099  -0.048754   0.004258   0.005383  -0.046529   0.482325
     7  H   -0.048608   0.367951  -0.046941   0.005906   0.004465   0.000885
     8  H    0.005037  -0.042616   0.375827  -0.054444   0.004544  -0.000227
     9  H    0.003962   0.004564  -0.037890   0.345991  -0.037705  -0.000075
    10  H    0.000857   0.000337  -0.035761   0.380503  -0.035304  -0.000133
    11  H   -0.042359   0.005480   0.004893  -0.054509   0.373317  -0.000596
              7          8          9         10         11
     1  C   -0.048608   0.005037   0.003962   0.000857  -0.042359
     2  C    0.367951  -0.042616   0.004564   0.000337   0.005480
     3  C   -0.046941   0.375827  -0.037890  -0.035761   0.004893
     4  C    0.005906  -0.054444   0.345991   0.380503  -0.054509
     5  C    0.004465   0.004544  -0.037705  -0.035304   0.373317
     6  H    0.000885  -0.000227  -0.000075  -0.000133  -0.000596
     7  H    0.478382  -0.000628  -0.000088  -0.000137  -0.000308
     8  H   -0.000628   0.486859   0.001136  -0.000933  -0.000192
     9  H   -0.000088   0.001136   0.487287  -0.017993   0.001186
    10  H   -0.000137  -0.000933  -0.017993   0.461998  -0.000983
    11  H   -0.000308  -0.000192   0.001186  -0.000983   0.483236
 Mulliken atomic charges:
              1
     1  C   -0.247841
     2  C   -0.245043
     3  C   -0.217707
     4  C   -0.502141
     5  C   -0.213402
     6  H    0.233364
     7  H    0.239121
     8  H    0.225638
     9  H    0.249625
    10  H    0.247550
    11  H    0.230836
 Sum of Mulliken atomic charges =   0.00000
 Mulliken charges with hydrogens summed into heavy atoms:
              1
     1  C   -0.014477
     2  C   -0.005922
     3  C    0.007931
     4  C   -0.004966
     5  C    0.017435
 Sum of Mulliken charges with hydrogens summed into heavy atoms =   0.00000
 Electronic spatial extent (au):  <R**2>=            349.6322
 Charge=              0.0000 electrons
 Dipole moment (field-independent basis, Debye):
    X=              0.7555    Y=             -0.1139    Z=              2.6883  Tot=              2.7947
 Quadrupole moment (field-independent basis, Debye-Ang):
   XX=            -30.6782   YY=            -34.5721   ZZ=            -31.6578
   XY=             -0.0925   XZ=             -1.5271   YZ=              0.1415
 Traceless Quadrupole moment (field-independent basis, Debye-Ang):
   XX=              1.6246   YY=             -2.2694   ZZ=              0.6449
   XY=             -0.0925   XZ=             -1.5271   YZ=              0.1415
 Octapole moment (field-independent basis, Debye-Ang**2):
  XXX=              4.6667  YYY=             -0.0602  ZZZ=              6.1818  XYY=              0.6621
  XXY=             -0.5839  XXZ=              5.6596  XZZ=              2.0691  YZZ=             -0.2159
  YYZ=              9.0628  XYZ=              0.2537
 Hexadecapole moment (field-independent basis, Debye-Ang**3):
 XXXX=           -229.0267 YYYY=           -232.4407 ZZZZ=            -51.9028 XXXY=              0.0730
 XXXZ=             -8.2051 YYYX=              0.3981 YYYZ=              0.5239 ZZZX=             -2.6374
 ZZZY=              0.1900 XXYY=            -77.8191 XXZZ=            -42.0217 YYZZ=            -43.8968
 XXYZ=              0.4039 YYXZ=             -1.5406 ZZXY=             -0.6031
 N-N= 1.503264290236D+02 E-N=-7.449705532679D+02  KE= 1.902194664980D+02
 Calling FoFJK, ICntrl=      2127 FMM=F ISym2X=0 I1Cent= 0 IOpClX= 0 NMat=1 NMatS=1 NMatT=0.
 ***** Axes restored to original set *****
 -------------------------------------------------------------------
 Center     Atomic                   Forces (Hartrees/Bohr)
 Number     Number              X              Y              Z
 -------------------------------------------------------------------
      1        6          -0.004772149    0.120619751   -0.064774895
      2        6           0.002860270    0.128772084   -0.046228592
      3        6          -0.041555942   -0.118649174   -0.066253670
      4        6          -0.001790916    0.025471416    0.051041891
      5        6           0.051902798   -0.119918879   -0.051987889
      6        1          -0.009713592   -0.006947906    0.044638570
      7        1           0.010775301   -0.012603150    0.045704143
      8        1           0.008973086    0.000586721    0.042893496
      9        1          -0.000116349   -0.003835218   -0.016870484
     10        1          -0.000108788   -0.015425823    0.018657801
     11        1          -0.016453719    0.001930178    0.043179629
 -------------------------------------------------------------------
 Cartesian Forces:  Max     0.128772084 RMS     0.052271966

 GradGradGradGradGradGradGradGradGradGradGradGradGradGradGradGradGradGrad
 Berny optimization.
 Internal  Forces:  Max     0.119319246 RMS     0.028578984
 Search for a local minimum.
 Step number   1 out of a maximum of   63
 All quantities printed in internal units (Hartrees-Bohrs-Radians)
 Mixed Optimization -- RFO/linear search
 Second derivative matrix not updated -- first step.
     Eigenvalues ---    0.00475   0.00481   0.02328   0.02666   0.03408
     Eigenvalues ---    0.03600   0.04815   0.06793   0.07286   0.09200
     Eigenvalues ---    0.09459   0.09911   0.11515   0.11847   0.22656
     Eigenvalues ---    0.23377   0.28865   0.29003   0.30168   0.30170
     Eigenvalues ---    0.30180   0.31639   0.31655   0.31672   0.31678
     Eigenvalues ---    0.31684   0.316981000.000001000.000001000.00000
     Eigenvalues --- 1000.000001000.000001000.000001000.000001000.00000
     Eigenvalues --- 1000.000001000.000001000.000001000.000001000.00000
     Eigenvalues --- 1000.000001000.000001000.000001000.000001000.00000
     Eigenvalues --- 1000.000001000.000001000.000001000.000001000.00000
     Eigenvalues --- 1000.000001000.000001000.00000
 RFO step:  Lambda=-1.34793867D-01 EMin= 4.75084154D-03
 Linear search not attempted -- first point.
 Maximum step size (   0.300) exceeded in Quadratic search.
    -- Step size scaled by   0.418
 Iteration  1 RMS(Cart)=  0.03619506 RMS(Int)=  0.00190872
 Iteration  2 RMS(Cart)=  0.00181181 RMS(Int)=  0.00062637
 Iteration  3 RMS(Cart)=  0.00000189 RMS(Int)=  0.00062636
 Iteration  4 RMS(Cart)=  0.00000000 RMS(Int)=  0.00062636
 Variable       Old X    -DE/DX   Delta X   Delta X   Delta X     New X
                                 (Linear)    (Quad)   (Total)
    R1        2.87589  -0.01647   0.00000  -0.01792  -0.01751   2.85839
    R2        2.87645  -0.11932   0.00000  -0.11505  -0.11490   2.76155
    R3        2.11438  -0.02707   0.00000  -0.02506  -0.02506   2.08932
    R4        2.87590  -0.11897   0.00000  -0.11450  -0.11439   2.76151
    R5        2.11509  -0.02712   0.00000  -0.02513  -0.02513   2.08996
    R6        2.87612  -0.00283   0.00000  -0.00090  -0.00124   2.87488
    R7        2.11401  -0.02652   0.00000  -0.02454  -0.02454   2.08946
    R8        2.87623  -0.00210   0.00000  -0.00030  -0.00062   2.87561
    R9        2.11426  -0.01511   0.00000  -0.01399  -0.01399   2.10027
   R10        2.11480  -0.02393   0.00000  -0.02217  -0.02217   2.09263
   R11        2.11449  -0.02645   0.00000  -0.02449  -0.02449   2.09000
    A1        1.88415   0.01327   0.00000   0.01326   0.01335   1.89750
    A2        1.92870   0.01411   0.00000   0.03880   0.03676   1.96546
    A3        1.92918   0.01361   0.00000   0.03892   0.03717   1.96635
    A4        1.88391   0.01020   0.00000   0.00938   0.00967   1.89359
    A5        1.92540   0.01324   0.00000   0.03692   0.03512   1.96052
    A6        1.92566   0.01524   0.00000   0.03929   0.03774   1.96340
    A7        1.88345  -0.00378   0.00000  -0.00108  -0.00136   1.88209
    A8        1.93031   0.00555   0.00000   0.01977   0.01843   1.94874
    A9        1.93021   0.02674   0.00000   0.05375   0.05330   1.98351
   A10        1.88424  -0.01311   0.00000  -0.01579  -0.01599   1.86825
   A11        1.92871   0.00500   0.00000   0.00648   0.00640   1.93512
   A12        1.92661   0.00345   0.00000   0.00367   0.00388   1.93049
   A13        1.92944   0.00419   0.00000   0.00544   0.00539   1.93482
   A14        1.92601   0.00402   0.00000   0.00426   0.00445   1.93046
   A15        1.86933  -0.00318   0.00000  -0.00363  -0.00368   1.86564
   A16        1.88449  -0.00593   0.00000  -0.00401  -0.00416   1.88034
   A17        1.92835   0.00594   0.00000   0.01947   0.01822   1.94657
   A18        1.92738   0.02696   0.00000   0.05429   0.05397   1.98135
    D1        0.07160  -0.00114   0.00000  -0.00543  -0.00551   0.06609
    D2       -2.03360  -0.03398   0.00000  -0.08123  -0.08191  -2.11551
    D3        2.18323   0.03242   0.00000   0.07402   0.07466   2.25789
    D4        0.07804  -0.00042   0.00000  -0.00178  -0.00173   0.07630
    D5       -0.02374  -0.00186   0.00000  -0.00591  -0.00609  -0.02984
    D6        2.08569   0.03101   0.00000   0.06979   0.06988   2.15557
    D7       -2.13508  -0.03574   0.00000  -0.08531  -0.08604  -2.22113
    D8       -0.02565  -0.00287   0.00000  -0.00961  -0.01007  -0.03572
    D9       -0.09210   0.00663   0.00000   0.01738   0.01749  -0.07461
   D10       -2.20552  -0.02714   0.00000  -0.05984  -0.05996  -2.26547
   D11        2.01294   0.03822   0.00000   0.09171   0.09235   2.10528
   D12       -0.10048   0.00445   0.00000   0.01449   0.01490  -0.08558
   D13        0.07741  -0.00796   0.00000  -0.02130  -0.02131   0.05611
   D14        2.18943  -0.00808   0.00000  -0.02069  -0.02098   2.16844
   D15       -2.02914  -0.00674   0.00000  -0.01885  -0.01908  -2.04821
   D16        2.19090   0.01261   0.00000   0.03473   0.03530   2.22620
   D17       -1.98028   0.01249   0.00000   0.03534   0.03562  -1.94465
   D18        0.08435   0.01383   0.00000   0.03719   0.03753   0.12188
   D19       -0.03317   0.00708   0.00000   0.01783   0.01777  -0.01540
   D20       -2.14321  -0.01267   0.00000  -0.03613  -0.03669  -2.17991
   D21       -2.14474   0.00671   0.00000   0.01658   0.01681  -2.12792
   D22        2.02841  -0.01304   0.00000  -0.03738  -0.03765   1.99076
   D23        2.07375   0.00552   0.00000   0.01501   0.01519   2.08894
   D24       -0.03629  -0.01423   0.00000  -0.03894  -0.03928  -0.07556
         Item               Value     Threshold  Converged?
 Maximum Force            0.119319     0.000450     NO 
 RMS     Force            0.028579     0.000300     NO 
 Maximum Displacement     0.088701     0.001800     NO 
 RMS     Displacement     0.036165     0.001200     NO 
 Predicted change in Energy=-5.068084D-02
 GradGradGradGradGradGradGradGradGradGradGradGradGradGradGradGradGradGrad

                          Input orientation:                          
 ---------------------------------------------------------------------
 Center     Atomic      Atomic             Coordinates (Angstroms)
 Number     Number       Type             X           Y           Z
 ---------------------------------------------------------------------
      1          6           0        1.068925   -1.912797    0.094916
      2          6           0        2.581507   -1.913838    0.100422
      3          6           0        3.046004   -0.528304    0.103825
      4          6           0        1.825244    0.372686   -0.007459
      5          6           0        0.601226   -0.531330    0.003518
      6          1           0        0.646248   -2.558909   -0.696463
      7          1           0        3.004348   -2.499818   -0.736824
      8          1           0        3.802293   -0.349584   -0.682718
      9          1           0        1.789669    1.097165    0.834628
     10          1           0        1.862869    0.966454   -0.941429
     11          1           0       -0.063635   -0.384732   -0.868066
 ---------------------------------------------------------------------
                    Distance matrix (angstroms):
                    1          2          3          4          5
     1  C    0.000000
     2  C    1.512593   0.000000
     3  C    2.413657   1.461327   0.000000
     4  C    2.409549   2.410760   1.521322   0.000000
     5  C    1.461351   2.417071   2.446836   1.521705   0.000000
     6  H    1.105621   2.190062   3.243863   3.234039   2.145478
     7  H    2.186835   1.105960   2.143664   3.189598   3.193438
     8  H    3.243401   2.133195   1.105696   2.210514   3.278839
     9  H    3.182218   3.198782   2.180504   1.111416   2.180628
    10  H    3.161398   3.146105   2.174089   1.107374   2.174402
    11  H    2.131902   3.205139   3.261141   2.209568   1.105979
                    6          7          8          9         10
     6  H    0.000000
     7  H    2.359186   0.000000
     8  H    3.852523   2.294156   0.000000
     9  H    4.125352   4.108916   2.906214   0.000000
    10  H    3.737427   3.655117   2.358019   1.782364   0.000000
    11  H    2.293562   3.728717   3.870529   2.920603   2.354252
                   11
    11  H    0.000000
 Stoichiometry    C5H6
 Framework group  C1[X(C5H6)]
 Deg. of freedom    27
 Full point group                 C1      NOp   1
 Largest Abelian subgroup         C1      NOp   1
 Largest concise Abelian subgroup C1      NOp   1
                         Standard orientation:                         
 ---------------------------------------------------------------------
 Center     Atomic      Atomic             Coordinates (Angstroms)
 Number     Number       Type             X           Y           Z
 ---------------------------------------------------------------------
      1          6           0       -1.129062   -0.637163   -0.169265
      2          6           0       -0.969354    0.866443   -0.129296
      3          6           0        0.457528    1.180404   -0.099111
      4          6           0        1.221708   -0.132164   -0.011843
      5          6           0        0.193130   -1.251960   -0.072423
      6          1           0       -1.829990   -1.010808    0.599817
      7          1           0       -1.521490    1.325433    0.711907
      8          1           0        0.701942    1.890675    0.712272
      9          1           0        1.952754   -0.220890   -0.844277
     10          1           0        1.799886   -0.184625    0.931149
     11          1           0        0.253202   -1.953143    0.780761
 ---------------------------------------------------------------------
 Rotational constants (GHZ):      7.8843592      7.7754287      4.1843748
 Standard basis: 3-21G (6D, 7F)
 There are    57 symmetry adapted basis functions of A   symmetry.
 Integral buffers will be    262144 words long.
 Raffenetti 1 integral format.
 Two-electron integral symmetry is turned on.
    57 basis functions,    93 primitive gaussians,    57 cartesian basis functions
    18 alpha electrons       18 beta electrons
       nuclear repulsion energy       152.4523783185 Hartrees.
 NAtoms=   11 NActive=   11 NUniq=   11 SFac= 7.50D-01 NAtFMM=   80 NAOKFM=F Big=F
 One-electron integrals computed using PRISM.
 NBasis=    57 RedAO= T  NBF=    57
 NBsUse=    57 1.00D-06 NBFU=    57
 Initial guess read from the read-write file.
 B after Tr=     0.000000    0.000000    0.000000
         Rot=    1.000000    0.000000    0.000000    0.000000 Ang=   0.00 deg.
 Initial guess orbital symmetries:
       Occupied  (A) (A) (A) (A) (A) (A) (A) (A) (A) (A) (A) (A)
                 (A) (A) (A) (A) (A) (A)
       Virtual   (A) (A) (A) (A) (A) (A) (A) (A) (A) (A) (A) (A)
                 (A) (A) (A) (A) (A) (A) (A) (A) (A) (A) (A) (A)
                 (A) (A) (A) (A) (A) (A) (A) (A) (A) (A) (A) (A)
                 (A) (A) (A)
 Harris functional with IExCor=  205 diagonalized for initial guess.
 ExpMin= 1.83D-01 ExpMax= 1.72D+02 ExpMxC= 1.72D+02 IAcc=1 IRadAn=         1 AccDes= 0.00D+00
 HarFok:  IExCor=  205 AccDes= 0.00D+00 IRadAn=         1 IDoV= 1
 ScaDFX=  1.000000  1.000000  1.000000  1.000000
 FoFCou: FMM=F IPFlag=           0 FMFlag=      100000 FMFlg1=           0
         NFxFlg=           0 DoJE=T BraDBF=F KetDBF=T FulRan=T
         Omega=  0.000000  0.000000  1.000000  0.000000  0.000000 ICntrl=     500 IOpCl=  0
         NMat0=    1 NMatS0=    1 NMatT0=    0 NMatD0=    1 NMtDS0=    0 NMtDT0=    0
         I1Cent=           4 NGrid=           0.
 Petite list used in FoFCou.
 Requested convergence on RMS density matrix=1.00D-08 within 128 cycles.
 Requested convergence on MAX density matrix=1.00D-06.
 Requested convergence on             energy=1.00D-06.
 No special actions if energy rises.
 Keep R1 ints in memory in canonical form, NReq=2195637.
 SCF Done:  E(RHF) =  -191.550528516     A.U. after   14 cycles
             Convg  =    0.4337D-08             -V/T =  2.0052
 Calling FoFJK, ICntrl=      2127 FMM=F ISym2X=0 I1Cent= 0 IOpClX= 0 NMat=1 NMatS=1 NMatT=0.
 ***** Axes restored to original set *****
 -------------------------------------------------------------------
 Center     Atomic                   Forces (Hartrees/Bohr)
 Number     Number              X              Y              Z
 -------------------------------------------------------------------
      1        6          -0.008453672    0.095844041   -0.055761515
      2        6           0.005953287    0.103834305   -0.039993748
      3        6          -0.037878752   -0.101132816   -0.058600511
      4        6          -0.001937248    0.028309756    0.048143110
      5        6           0.047802441   -0.102006193   -0.046178052
      6        1          -0.007939886   -0.008491671    0.038882619
      7        1           0.008978706   -0.013550401    0.040368830
      8        1           0.008531847    0.005224428    0.037135584
      9        1          -0.000172457   -0.001929558   -0.013584085
     10        1           0.000215684   -0.012461987    0.011932819
     11        1          -0.015099951    0.006360097    0.037654949
 -------------------------------------------------------------------
 Cartesian Forces:  Max     0.103834305 RMS     0.044387468

 GradGradGradGradGradGradGradGradGradGradGradGradGradGradGradGradGradGrad
 Berny optimization.
 Using GEDIIS/GDIIS optimizer.
 Internal  Forces:  Max     0.092777580 RMS     0.023096142
 Search for a local minimum.
 Step number   2 out of a maximum of   63
 All quantities printed in internal units (Hartrees-Bohrs-Radians)
 Mixed Optimization -- RFO/linear search
 Update second derivatives using D2CorX and points    1    2
 DE= -5.19D-02 DEPred=-5.07D-02 R= 1.02D+00
 SS=  1.41D+00  RLast= 3.00D-01 DXNew= 5.0454D-01 8.9968D-01
 Trust test= 1.02D+00 RLast= 3.00D-01 DXMaxT set to 5.05D-01
 Use linear search instead of GDIIS.
 Linear search step of   0.600 exceeds DXMaxT=   0.505 but not scaled.
 Quartic linear search produced a step of  2.00000.
 Iteration  1 RMS(Cart)=  0.06781208 RMS(Int)=  0.01024439
 Iteration  2 RMS(Cart)=  0.01197147 RMS(Int)=  0.00395406
 Iteration  3 RMS(Cart)=  0.00003348 RMS(Int)=  0.00395394
 Iteration  4 RMS(Cart)=  0.00000009 RMS(Int)=  0.00395394
 Variable       Old X    -DE/DX   Delta X   Delta X   Delta X     New X
                                 (Linear)    (Quad)   (Total)
    R1        2.85839  -0.01000  -0.03502   0.00000  -0.03203   2.82635
    R2        2.76155  -0.09278  -0.22979   0.00000  -0.22866   2.53290
    R3        2.08932  -0.01983  -0.05011   0.00000  -0.05011   2.03921
    R4        2.76151  -0.09260  -0.22879   0.00000  -0.22790   2.53361
    R5        2.08996  -0.01995  -0.05026   0.00000  -0.05026   2.03970
    R6        2.87488  -0.00143  -0.00248   0.00000  -0.00492   2.86996
    R7        2.08946  -0.01974  -0.04909   0.00000  -0.04909   2.04038
    R8        2.87561  -0.00087  -0.00125   0.00000  -0.00354   2.87207
    R9        2.10027  -0.01154  -0.02798   0.00000  -0.02798   2.07229
   R10        2.09263  -0.01674  -0.04433   0.00000  -0.04433   2.04830
   R11        2.09000  -0.01975  -0.04898   0.00000  -0.04898   2.04101
    A1        1.89750   0.00911   0.02670   0.00000   0.02721   1.92471
    A2        1.96546   0.01016   0.07351   0.00000   0.06060   2.02606
    A3        1.96635   0.01374   0.07435   0.00000   0.06323   2.02958
    A4        1.89359   0.00706   0.01934   0.00000   0.02106   1.91465
    A5        1.96052   0.00969   0.07025   0.00000   0.05868   2.01920
    A6        1.96340   0.01485   0.07548   0.00000   0.06542   2.02882
    A7        1.88209   0.00032  -0.00272   0.00000  -0.00446   1.87763
    A8        1.94874   0.00621   0.03686   0.00000   0.02820   1.97694
    A9        1.98351   0.01978   0.10660   0.00000   0.10365   2.08716
   A10        1.86825  -0.01481  -0.03198   0.00000  -0.03296   1.83529
   A11        1.93512   0.00491   0.01281   0.00000   0.01218   1.94730
   A12        1.93049   0.00415   0.00777   0.00000   0.00905   1.93954
   A13        1.93482   0.00430   0.01077   0.00000   0.01032   1.94515
   A14        1.93046   0.00470   0.00890   0.00000   0.01003   1.94049
   A15        1.86564  -0.00284  -0.00737   0.00000  -0.00764   1.85800
   A16        1.88034  -0.00122  -0.00831   0.00000  -0.00928   1.87106
   A17        1.94657   0.00655   0.03643   0.00000   0.02812   1.97468
   A18        1.98135   0.02004   0.10794   0.00000   0.10567   2.08702
    D1        0.06609  -0.00148  -0.01103   0.00000  -0.01144   0.05465
    D2       -2.11551  -0.03252  -0.16382   0.00000  -0.16692  -2.28243
    D3        2.25789   0.03050   0.14932   0.00000   0.15215   2.41004
    D4        0.07630  -0.00054  -0.00347   0.00000  -0.00334   0.07297
    D5       -0.02984  -0.00241  -0.01219   0.00000  -0.01343  -0.04327
    D6        2.15557   0.02651   0.13976   0.00000   0.13935   2.29492
    D7       -2.22113  -0.03231  -0.17209   0.00000  -0.17580  -2.39693
    D8       -0.03572  -0.00340  -0.02014   0.00000  -0.02302  -0.05874
    D9       -0.07461   0.00660   0.03498   0.00000   0.03561  -0.03900
   D10       -2.26547  -0.02300  -0.11991   0.00000  -0.11977  -2.38524
   D11        2.10528   0.03464   0.18470   0.00000   0.18790   2.29318
   D12       -0.08558   0.00504   0.02981   0.00000   0.03252  -0.05306
   D13        0.05611  -0.00806  -0.04261   0.00000  -0.04258   0.01353
   D14        2.16844  -0.00924  -0.04197   0.00000  -0.04375   2.12470
   D15       -2.04821  -0.00702  -0.03815   0.00000  -0.03958  -2.08779
   D16        2.22620   0.01382   0.07060   0.00000   0.07422   2.30041
   D17       -1.94465   0.01263   0.07124   0.00000   0.07305  -1.87160
   D18        0.12188   0.01486   0.07506   0.00000   0.07722   0.19910
   D19       -0.01540   0.00715   0.03554   0.00000   0.03522   0.01981
   D20       -2.17991  -0.01400  -0.07339   0.00000  -0.07705  -2.25696
   D21       -2.12792   0.00795   0.03363   0.00000   0.03515  -2.09277
   D22        1.99076  -0.01320  -0.07531   0.00000  -0.07712   1.91364
   D23        2.08894   0.00576   0.03038   0.00000   0.03157   2.12051
   D24       -0.07556  -0.01538  -0.07855   0.00000  -0.08070  -0.15627
         Item               Value     Threshold  Converged?
 Maximum Force            0.092778     0.000450     NO 
 RMS     Force            0.023096     0.000300     NO 
 Maximum Displacement     0.175524     0.001800     NO 
 RMS     Displacement     0.070807     0.001200     NO 
 Predicted change in Energy=-7.527437D-02
 GradGradGradGradGradGradGradGradGradGradGradGradGradGradGradGradGradGrad

                          Input orientation:                          
 ---------------------------------------------------------------------
 Center     Atomic      Atomic             Coordinates (Angstroms)
 Number     Number       Type             X           Y           Z
 ---------------------------------------------------------------------
      1          6           0        1.080506   -1.819913    0.016976
      2          6           0        2.576063   -1.822459    0.032761
      3          6           0        3.030110   -0.560993    0.042598
      4          6           0        1.824939    0.360843   -0.022905
      5          6           0        0.618812   -0.563456   -0.051558
      6          1           0        0.611693   -2.537725   -0.638327
      7          1           0        3.050252   -2.494947   -0.665758
      8          1           0        3.860527   -0.401290   -0.628742
      9          1           0        1.789449    1.039839    0.837477
     10          1           0        1.859604    0.987007   -0.906978
     11          1           0       -0.137258   -0.429914   -0.811195
 ---------------------------------------------------------------------
                    Distance matrix (angstroms):
                    1          2          3          4          5
     1  C    0.000000
     2  C    1.495642   0.000000
     3  C    2.320882   1.340729   0.000000
     4  C    2.304662   2.309566   1.518719   0.000000
     5  C    1.340351   2.328739   2.413136   1.519833   0.000000
     6  H    1.079102   2.195612   3.196852   3.201938   2.059632
     7  H    2.191277   1.079363   2.059697   3.173356   3.165406
     8  H    3.187156   2.026612   1.079720   2.256436   3.296689
     9  H    3.058432   3.075562   2.175715   1.096609   2.175162
    10  H    3.056057   3.047871   2.160574   1.083913   2.162231
    11  H    2.025071   3.164420   3.283041   2.257635   1.080058
                    6          7          8          9         10
     6  H    0.000000
     7  H    2.439088   0.000000
     8  H    3.888363   2.245287   0.000000
     9  H    4.045253   4.042778   2.918221   0.000000
    10  H    3.748758   3.687794   2.451219   1.746664   0.000000
    11  H    2.243586   3.800754   4.002049   2.930955   2.450367
                   11
    11  H    0.000000
 Stoichiometry    C5H6
 Framework group  C1[X(C5H6)]
 Deg. of freedom    27
 Full point group                 C1      NOp   1
 Largest Abelian subgroup         C1      NOp   1
 Largest concise Abelian subgroup C1      NOp   1
                         Standard orientation:                         
 ---------------------------------------------------------------------
 Center     Atomic      Atomic             Coordinates (Angstroms)
 Number     Number       Type             X           Y           Z
 ---------------------------------------------------------------------
      1          6           0        0.836989   -0.896592   -0.147035
      2          6           0       -0.650740   -1.047392   -0.117557
      3          6           0       -1.226845    0.162393   -0.071986
      4          6           0       -0.116771    1.197150   -0.012653
      5          6           0        1.174774    0.396945   -0.051094
      6          1           0        1.395835   -1.583454    0.469707
      7          1           0       -1.032802   -1.784250    0.572437
      8          1           0       -2.046043    0.218609    0.629121
      9          1           0       -0.177082    1.901682   -0.850835
     10          1           0       -0.183340    1.790098    0.892250
     11          1           0        1.938993    0.582290    0.689272
 ---------------------------------------------------------------------
 Rotational constants (GHZ):      8.6294096      8.0493746      4.4095000
 Standard basis: 3-21G (6D, 7F)
 There are    57 symmetry adapted basis functions of A   symmetry.
 Integral buffers will be    262144 words long.
 Raffenetti 1 integral format.
 Two-electron integral symmetry is turned on.
    57 basis functions,    93 primitive gaussians,    57 cartesian basis functions
    18 alpha electrons       18 beta electrons
       nuclear repulsion energy       157.2156553279 Hartrees.
 NAtoms=   11 NActive=   11 NUniq=   11 SFac= 7.50D-01 NAtFMM=   80 NAOKFM=F Big=F
 One-electron integrals computed using PRISM.
 NBasis=    57 RedAO= T  NBF=    57
 NBsUse=    57 1.00D-06 NBFU=    57
 Initial guess read from the read-write file.
 B after Tr=     0.000000    0.000000    0.000000
         Rot=    1.000000    0.000000    0.000000    0.000000 Ang=   0.00 deg.
 Initial guess orbital symmetries:
       Occupied  (A) (A) (A) (A) (A) (A) (A) (A) (A) (A) (A) (A)
                 (A) (A) (A) (A) (A) (A)
       Virtual   (A) (A) (A) (A) (A) (A) (A) (A) (A) (A) (A) (A)
                 (A) (A) (A) (A) (A) (A) (A) (A) (A) (A) (A) (A)
                 (A) (A) (A) (A) (A) (A) (A) (A) (A) (A) (A) (A)
                 (A) (A) (A)
 Harris functional with IExCor=  205 diagonalized for initial guess.
 ExpMin= 1.83D-01 ExpMax= 1.72D+02 ExpMxC= 1.72D+02 IAcc=1 IRadAn=         1 AccDes= 0.00D+00
 HarFok:  IExCor=  205 AccDes= 0.00D+00 IRadAn=         1 IDoV= 1
 ScaDFX=  1.000000  1.000000  1.000000  1.000000
 FoFCou: FMM=F IPFlag=           0 FMFlag=      100000 FMFlg1=           0
         NFxFlg=           0 DoJE=T BraDBF=F KetDBF=T FulRan=T
         Omega=  0.000000  0.000000  1.000000  0.000000  0.000000 ICntrl=     500 IOpCl=  0
         NMat0=    1 NMatS0=    1 NMatT0=    0 NMatD0=    1 NMtDS0=    0 NMtDT0=    0
         I1Cent=           4 NGrid=           0.
 Petite list used in FoFCou.
 Requested convergence on RMS density matrix=1.00D-08 within 128 cycles.
 Requested convergence on MAX density matrix=1.00D-06.
 Requested convergence on             energy=1.00D-06.
 No special actions if energy rises.
 Keep R1 ints in memory in canonical form, NReq=2195637.
 SCF Done:  E(RHF) =  -191.617566732     A.U. after   14 cycles
             Convg  =    0.6036D-08             -V/T =  2.0012
 Calling FoFJK, ICntrl=      2127 FMM=F ISym2X=0 I1Cent= 0 IOpClX= 0 NMat=1 NMatS=1 NMatT=0.
 ***** Axes restored to original set *****
 -------------------------------------------------------------------
 Center     Atomic                   Forces (Hartrees/Bohr)
 Number     Number              X              Y              Z
 -------------------------------------------------------------------
      1        6           0.003520976    0.005517086   -0.034773419
      2        6          -0.006941464    0.013545949   -0.026694610
      3        6          -0.017442587   -0.024894894   -0.042634577
      4        6          -0.002144241    0.035582429    0.042901463
      5        6           0.026303458   -0.025048594   -0.036263070
      6        1          -0.007359909   -0.015514207    0.026289733
      7        1           0.008360502   -0.019190389    0.028334636
      8        1           0.013028699    0.015789761    0.025295810
      9        1          -0.000307919    0.001940934   -0.005931565
     10        1           0.000787343   -0.004228051   -0.002233070
     11        1          -0.017804859    0.016499976    0.025708668
 -------------------------------------------------------------------
 Cartesian Forces:  Max     0.042901463 RMS     0.021519734

 GradGradGradGradGradGradGradGradGradGradGradGradGradGradGradGradGradGrad
 Berny optimization.
 Using GEDIIS/GDIIS optimizer.
 Internal  Forces:  Max     0.028051854 RMS     0.011316687
 Search for a local minimum.
 Step number   3 out of a maximum of   63
 All quantities printed in internal units (Hartrees-Bohrs-Radians)
 Mixed Optimization -- RFO/linear search
 Update second derivatives using D2CorX and points    2    3
 Use linear search instead of GDIIS.
     Eigenvalues ---    0.00475   0.00478   0.01659   0.01926   0.02231
     Eigenvalues ---    0.02331   0.04741   0.06894   0.08222   0.08795
     Eigenvalues ---    0.10637   0.10702   0.12280   0.12807   0.22172
     Eigenvalues ---    0.22726   0.28518   0.28765   0.30156   0.30175
     Eigenvalues ---    0.31124   0.31645   0.31657   0.31675   0.31680
     Eigenvalues ---    0.31693   0.432361000.000001000.000001000.00000
     Eigenvalues --- 1000.000001000.000001000.000001000.000001000.00000
     Eigenvalues --- 1000.000001000.000001000.000001000.000001000.00000
     Eigenvalues --- 1000.000001000.000001000.000001000.000001000.00000
     Eigenvalues --- 1000.000001000.000001000.000001000.000001000.00000
     Eigenvalues --- 1000.000001000.000001000.00000
 RFO step:  Lambda=-5.82513290D-02 EMin= 4.74614187D-03
 Quartic linear search produced a step of  0.39451.
 Maximum step size (   0.505) exceeded in Quadratic search.
    -- Step size scaled by   0.667
 Iteration  1 RMS(Cart)=  0.08007654 RMS(Int)=  0.01226596
 Iteration  2 RMS(Cart)=  0.00910158 RMS(Int)=  0.00535520
 Iteration  3 RMS(Cart)=  0.00013936 RMS(Int)=  0.00535305
 Iteration  4 RMS(Cart)=  0.00000068 RMS(Int)=  0.00535305
 Variable       Old X    -DE/DX   Delta X   Delta X   Delta X     New X
                                 (Linear)    (Quad)   (Total)
    R1        2.82635   0.00043  -0.01264   0.00453  -0.00581   2.82055
    R2        2.53290   0.00656  -0.09021   0.06780  -0.02147   2.51143
    R3        2.03921  -0.00245  -0.01977   0.00701  -0.01276   2.02645
    R4        2.53361   0.00631  -0.08991   0.06744  -0.02187   2.51174
    R5        2.03970  -0.00271  -0.01983   0.00654  -0.01329   2.02641
    R6        2.86996   0.00633  -0.00194   0.01744   0.01358   2.88355
    R7        2.04038  -0.00337  -0.01937   0.00496  -0.01441   2.02597
    R8        2.87207   0.00671  -0.00140   0.01767   0.01460   2.88667
    R9        2.07229  -0.00344  -0.01104  -0.00018  -0.01122   2.06107
   R10        2.04830  -0.00060  -0.01749   0.00925  -0.00824   2.04006
   R11        2.04101  -0.00358  -0.01932   0.00453  -0.01480   2.02622
    A1        1.92471  -0.00342   0.01074  -0.01747  -0.00703   1.91768
    A2        2.02606   0.00554   0.02391   0.04556   0.05363   2.07969
    A3        2.02958   0.01672   0.02494   0.08562   0.09746   2.12704
    A4        1.91465  -0.00321   0.00831  -0.01641  -0.00732   1.90732
    A5        2.01920   0.00561   0.02315   0.04438   0.05298   2.07218
    A6        2.02882   0.01622   0.02581   0.08216   0.09623   2.12505
    A7        1.87763   0.00962  -0.00176   0.03446   0.02895   1.90658
    A8        1.97694   0.00728   0.01112   0.06996   0.06767   2.04461
    A9        2.08716   0.00455   0.04089   0.02637   0.05667   2.14383
   A10        1.83529  -0.01229  -0.01300  -0.03375  -0.04394   1.79135
   A11        1.94730   0.00275   0.00481   0.00418   0.00720   1.95450
   A12        1.93954   0.00428   0.00357   0.01086   0.01460   1.95414
   A13        1.94515   0.00268   0.00407   0.00465   0.00710   1.95224
   A14        1.94049   0.00454   0.00396   0.01160   0.01555   1.95604
   A15        1.85800  -0.00161  -0.00301   0.00307   0.00014   1.85814
   A16        1.87106   0.00937  -0.00366   0.03387   0.02747   1.89853
   A17        1.97468   0.00708   0.01109   0.06895   0.06671   2.04139
   A18        2.08702   0.00512   0.04169   0.02691   0.05850   2.14552
    D1        0.05465  -0.00211  -0.00451  -0.01837  -0.02267   0.03198
    D2       -2.28243  -0.02805  -0.06585  -0.16492  -0.23121  -2.51363
    D3        2.41004   0.02500   0.06002   0.13793   0.19854   2.60858
    D4        0.07297  -0.00093  -0.00132  -0.00862  -0.00999   0.06297
    D5       -0.04327  -0.00367  -0.00530  -0.01883  -0.02554  -0.06882
    D6        2.29492   0.01770   0.05497   0.10650   0.16350   2.45842
    D7       -2.39693  -0.02531  -0.06936  -0.15559  -0.23045  -2.62737
    D8       -0.05874  -0.00394  -0.00908  -0.03025  -0.04140  -0.10014
    D9       -0.03900   0.00627   0.01405   0.04366   0.05912   0.02011
   D10       -2.38524  -0.01514  -0.04725  -0.08499  -0.13443  -2.51967
   D11        2.29318   0.02691   0.07413   0.17155   0.25114   2.54432
   D12       -0.05306   0.00550   0.01283   0.04290   0.05759   0.00454
   D13        0.01353  -0.00823  -0.01680  -0.05362  -0.07069  -0.05716
   D14        2.12470  -0.01113  -0.01726  -0.06674  -0.08523   2.03947
   D15       -2.08779  -0.00853  -0.01561  -0.05294  -0.07032  -2.15811
   D16        2.30041   0.01652   0.02928   0.10868   0.14110   2.44151
   D17       -1.87160   0.01362   0.02882   0.09557   0.12655  -1.74505
   D18        0.19910   0.01621   0.03046   0.10936   0.14146   0.34056
   D19        0.01981   0.00713   0.01389   0.04305   0.05696   0.07677
   D20       -2.25696  -0.01719  -0.03040  -0.11541  -0.14913  -2.40609
   D21       -2.09277   0.00997   0.01387   0.05641   0.07136  -2.02141
   D22        1.91364  -0.01436  -0.03042  -0.10205  -0.13473   1.77891
   D23        2.12051   0.00725   0.01245   0.04186   0.05591   2.17642
   D24       -0.15627  -0.01707  -0.03184  -0.11660  -0.15017  -0.30644
         Item               Value     Threshold  Converged?
 Maximum Force            0.028052     0.000450     NO 
 RMS     Force            0.011317     0.000300     NO 
 Maximum Displacement     0.200378     0.001800     NO 
 RMS     Displacement     0.082063     0.001200     NO 
 Predicted change in Energy=-4.886666D-02
 GradGradGradGradGradGradGradGradGradGradGradGradGradGradGradGradGradGrad

                          Input orientation:                          
 ---------------------------------------------------------------------
 Center     Atomic      Atomic             Coordinates (Angstroms)
 Number     Number       Type             X           Y           Z
 ---------------------------------------------------------------------
      1          6           0        1.084723   -1.813571   -0.074548
      2          6           0        2.577009   -1.815407   -0.045437
      3          6           0        3.017474   -0.561361   -0.042347
      4          6           0        1.824818    0.390460   -0.040803
      5          6           0        0.635413   -0.564010   -0.128757
      6          1           0        0.570577   -2.621567   -0.556973
      7          1           0        3.101584   -2.596571   -0.559723
      8          1           0        3.921816   -0.359195   -0.581498
      9          1           0        1.790180    1.000152    0.862879
     10          1           0        1.855725    1.077856   -0.872649
     11          1           0       -0.214621   -0.379794   -0.755795
 ---------------------------------------------------------------------
                    Distance matrix (angstroms):
                    1          2          3          4          5
     1  C    0.000000
     2  C    1.492570   0.000000
     3  C    2.303171   1.329154   0.000000
     4  C    2.325217   2.330592   1.525907   0.000000
     5  C    1.328993   2.311435   2.383630   1.527558   0.000000
     6  H    1.072352   2.222011   3.239845   3.303311   2.102644
     7  H    2.217253   1.072328   2.101626   3.289645   3.224754
     8  H    3.228205   2.053393   1.072095   2.291666   3.323758
     9  H    3.048520   3.061292   2.182660   1.090672   2.182529
    10  H    3.097057   3.094431   2.173959   1.079554   2.176755
    11  H    2.051368   3.218507   3.314878   2.294302   1.072227
                    6          7          8          9         10
     6  H    0.000000
     7  H    2.531133   0.000000
     8  H    4.043481   2.383088   0.000000
     9  H    4.076795   4.084115   2.911687   0.000000
    10  H    3.928994   3.892494   2.533499   1.738503   0.000000
    11  H    2.383613   3.993716   4.140159   2.922941   2.534706
                   11
    11  H    0.000000
 Stoichiometry    C5H6
 Framework group  C1[X(C5H6)]
 Deg. of freedom    27
 Full point group                 C1      NOp   1
 Largest Abelian subgroup         C1      NOp   1
 Largest concise Abelian subgroup C1      NOp   1
                         Standard orientation:                         
 ---------------------------------------------------------------------
 Center     Atomic      Atomic             Coordinates (Angstroms)
 Number     Number       Type             X           Y           Z
 ---------------------------------------------------------------------
      1          6           0        0.889514   -0.842824   -0.113970
      2          6           0       -0.583252   -1.084583   -0.097299
      3          6           0       -1.218674    0.081078   -0.033078
      4          6           0       -0.194739    1.212424   -0.030419
      5          6           0        1.134610    0.459991   -0.020041
      6          1           0        1.544014   -1.574628    0.317345
      7          1           0       -0.956451   -1.958895    0.398875
      8          1           0       -2.123025    0.114218    0.541760
      9          1           0       -0.291837    1.853059   -0.907758
     10          1           0       -0.304361    1.854216    0.830699
     11          1           0        1.966904    0.755514    0.587925
 ---------------------------------------------------------------------
 Rotational constants (GHZ):      8.5113578      8.1532713      4.3558325
 Standard basis: 3-21G (6D, 7F)
 There are    57 symmetry adapted basis functions of A   symmetry.
 Integral buffers will be    262144 words long.
 Raffenetti 1 integral format.
 Two-electron integral symmetry is turned on.
    57 basis functions,    93 primitive gaussians,    57 cartesian basis functions
    18 alpha electrons       18 beta electrons
       nuclear repulsion energy       157.0921885389 Hartrees.
 NAtoms=   11 NActive=   11 NUniq=   11 SFac= 7.50D-01 NAtFMM=   80 NAOKFM=F Big=F
 One-electron integrals computed using PRISM.
 NBasis=    57 RedAO= T  NBF=    57
 NBsUse=    57 1.00D-06 NBFU=    57
 Initial guess read from the read-write file.
 B after Tr=     0.000000    0.000000    0.000000
         Rot=    1.000000    0.000000    0.000000    0.000000 Ang=   0.00 deg.
 Initial guess orbital symmetries:
       Occupied  (A) (A) (A) (A) (A) (A) (A) (A) (A) (A) (A) (A)
                 (A) (A) (A) (A) (A) (A)
       Virtual   (A) (A) (A) (A) (A) (A) (A) (A) (A) (A) (A) (A)
                 (A) (A) (A) (A) (A) (A) (A) (A) (A) (A) (A) (A)
                 (A) (A) (A) (A) (A) (A) (A) (A) (A) (A) (A) (A)
                 (A) (A) (A)
 Harris functional with IExCor=  205 diagonalized for initial guess.
 ExpMin= 1.83D-01 ExpMax= 1.72D+02 ExpMxC= 1.72D+02 IAcc=1 IRadAn=         1 AccDes= 0.00D+00
 HarFok:  IExCor=  205 AccDes= 0.00D+00 IRadAn=         1 IDoV= 1
 ScaDFX=  1.000000  1.000000  1.000000  1.000000
 FoFCou: FMM=F IPFlag=           0 FMFlag=      100000 FMFlg1=           0
         NFxFlg=           0 DoJE=T BraDBF=F KetDBF=T FulRan=T
         Omega=  0.000000  0.000000  1.000000  0.000000  0.000000 ICntrl=     500 IOpCl=  0
         NMat0=    1 NMatS0=    1 NMatT0=    0 NMatD0=    1 NMtDS0=    0 NMtDT0=    0
         I1Cent=           4 NGrid=           0.
 Petite list used in FoFCou.
 Requested convergence on RMS density matrix=1.00D-08 within 128 cycles.
 Requested convergence on MAX density matrix=1.00D-06.
 Requested convergence on             energy=1.00D-06.
 No special actions if energy rises.
 Keep R1 ints in memory in canonical form, NReq=2195637.
 SCF Done:  E(RHF) =  -191.661575078     A.U. after   14 cycles
             Convg  =    0.6692D-08             -V/T =  2.0013
 Calling FoFJK, ICntrl=      2127 FMM=F ISym2X=0 I1Cent= 0 IOpClX= 0 NMat=1 NMatS=1 NMatT=0.
 ***** Axes restored to original set *****
 -------------------------------------------------------------------
 Center     Atomic                   Forces (Hartrees/Bohr)
 Number     Number              X              Y              Z
 -------------------------------------------------------------------
      1        6           0.007592350   -0.002180171   -0.022276234
      2        6          -0.010312152    0.003801723   -0.019934796
      3        6          -0.006673194   -0.010589998   -0.030074232
      4        6          -0.001463312    0.010398819    0.024729294
      5        6           0.013331172   -0.010877861   -0.027326523
      6        1          -0.005728741   -0.007152799    0.017859626
      7        1           0.006382797   -0.009530876    0.020827778
      8        1           0.010473928    0.013597206    0.021160479
      9        1          -0.000266473    0.000477737   -0.001493555
     10        1           0.000613039   -0.002178591   -0.005410130
     11        1          -0.013949415    0.014234811    0.021938293
 -------------------------------------------------------------------
 Cartesian Forces:  Max     0.030074232 RMS     0.014065494

 GradGradGradGradGradGradGradGradGradGradGradGradGradGradGradGradGradGrad
 Berny optimization.
 Using GEDIIS/GDIIS optimizer.
 Internal  Forces:  Max     0.017993621 RMS     0.007600170
 Search for a local minimum.
 Step number   4 out of a maximum of   63
 All quantities printed in internal units (Hartrees-Bohrs-Radians)
 Mixed Optimization -- RFO/linear search
 Update second derivatives using D2CorX and points    3    4
 DE= -4.40D-02 DEPred=-4.89D-02 R= 9.01D-01
 SS=  1.41D+00  RLast= 6.77D-01 DXNew= 8.4853D-01 2.0299D+00
 Trust test= 9.01D-01 RLast= 6.77D-01 DXMaxT set to 8.49D-01
 Use linear search instead of GDIIS.
 Linear search step of   1.353 exceeds DXMaxT=   0.849 but not scaled.
 Quartic linear search produced a step of  2.00000.
 Iteration  1 RMS(Cart)=  0.09626873 RMS(Int)=  0.07587205
 Iteration  2 RMS(Cart)=  0.05083512 RMS(Int)=  0.02617746
 Iteration  3 RMS(Cart)=  0.00503113 RMS(Int)=  0.02566957
 Iteration  4 RMS(Cart)=  0.00003393 RMS(Int)=  0.02566954
 Iteration  5 RMS(Cart)=  0.00000113 RMS(Int)=  0.02566954
 Iteration  6 RMS(Cart)=  0.00000004 RMS(Int)=  0.02566954
 Variable       Old X    -DE/DX   Delta X   Delta X   Delta X     New X
                                 (Linear)    (Quad)   (Total)
    R1        2.82055   0.00200  -0.01161   0.00000  -0.00127   2.81928
    R2        2.51143   0.00877  -0.04293   0.00000  -0.03890   2.47253
    R3        2.02645   0.00010  -0.02551   0.00000  -0.02551   2.00094
    R4        2.51174   0.00855  -0.04374   0.00000  -0.04113   2.47061
    R5        2.02641   0.00008  -0.02659   0.00000  -0.02659   1.99982
    R6        2.88355   0.00084   0.02717   0.00000   0.01880   2.90235
    R7        2.02597   0.00076  -0.02882   0.00000  -0.02882   1.99715
    R8        2.88667   0.00093   0.02920   0.00000   0.02188   2.90854
    R9        2.06107  -0.00096  -0.02244   0.00000  -0.02244   2.03863
   R10        2.04006   0.00280  -0.01647   0.00000  -0.01647   2.02359
   R11        2.02622   0.00067  -0.02960   0.00000  -0.02960   1.99662
    A1        1.91768  -0.00132  -0.01406   0.00000  -0.01626   1.90142
    A2        2.07969   0.00388   0.10726   0.00000   0.03576   2.11545
    A3        2.12704   0.00649   0.19492   0.00000   0.12859   2.25563
    A4        1.90732  -0.00026  -0.01465   0.00000  -0.01350   1.89382
    A5        2.07218   0.00376   0.10596   0.00000   0.03927   2.11146
    A6        2.12505   0.00610   0.19247   0.00000   0.13253   2.25759
    A7        1.90658  -0.00029   0.05791   0.00000   0.03873   1.94532
    A8        2.04461   0.00906   0.13534   0.00000   0.07463   2.11924
    A9        2.14383   0.00076   0.11335   0.00000   0.05443   2.19827
   A10        1.79135   0.00147  -0.08788   0.00000  -0.07000   1.72135
   A11        1.95450  -0.00324   0.01439   0.00000   0.00605   1.96055
   A12        1.95414   0.00162   0.02920   0.00000   0.02706   1.98120
   A13        1.95224  -0.00314   0.01420   0.00000   0.00659   1.95883
   A14        1.95604   0.00163   0.03109   0.00000   0.02813   1.98417
   A15        1.85814   0.00153   0.00028   0.00000   0.00152   1.85966
   A16        1.89853   0.00026   0.05494   0.00000   0.04029   1.93882
   A17        2.04139   0.00882   0.13341   0.00000   0.07272   2.11411
   A18        2.14552   0.00069   0.11699   0.00000   0.05916   2.20467
    D1        0.03198  -0.00122  -0.04535   0.00000  -0.04372  -0.01174
    D2       -2.51363  -0.01737  -0.46241   0.00000  -0.44361  -2.95725
    D3        2.60858   0.01520   0.39708   0.00000   0.37842   2.98700
    D4        0.06297  -0.00095  -0.01999   0.00000  -0.02148   0.04150
    D5       -0.06882  -0.00052  -0.05109   0.00000  -0.05437  -0.12319
    D6        2.45842   0.01260   0.32700   0.00000   0.33342   2.79184
    D7       -2.62737  -0.01637  -0.46089   0.00000  -0.47954  -3.10691
    D8       -0.10014  -0.00325  -0.08280   0.00000  -0.09175  -0.19189
    D9        0.02011   0.00231   0.11823   0.00000   0.12208   0.14220
   D10       -2.51967  -0.01097  -0.26887   0.00000  -0.27641  -2.79608
   D11        2.54432   0.01799   0.50229   0.00000   0.52172   3.06605
   D12        0.00454   0.00471   0.11519   0.00000   0.12323   0.12777
   D13       -0.05716  -0.00260  -0.14137   0.00000  -0.14052  -0.19768
   D14        2.03947  -0.00705  -0.17045   0.00000  -0.17020   1.86927
   D15       -2.15811  -0.00621  -0.14064   0.00000  -0.14449  -2.30261
   D16        2.44151   0.01500   0.28219   0.00000   0.28792   2.72943
   D17       -1.74505   0.01055   0.25311   0.00000   0.25823  -1.48681
   D18        0.34056   0.01139   0.28292   0.00000   0.28394   0.62449
   D19        0.07677   0.00185   0.11392   0.00000   0.11239   0.18916
   D20       -2.40609  -0.01567  -0.29825   0.00000  -0.30537  -2.71146
   D21       -2.02141   0.00637   0.14271   0.00000   0.14233  -1.87908
   D22        1.77891  -0.01115  -0.26946   0.00000  -0.27543   1.50348
   D23        2.17642   0.00546   0.11183   0.00000   0.11548   2.29190
   D24       -0.30644  -0.01206  -0.30035   0.00000  -0.30228  -0.60872
         Item               Value     Threshold  Converged?
 Maximum Force            0.017994     0.000450     NO 
 RMS     Force            0.007600     0.000300     NO 
 Maximum Displacement     0.419989     0.001800     NO 
 RMS     Displacement     0.139037     0.001200     NO 
 Predicted change in Energy=-3.341070D-02
 GradGradGradGradGradGradGradGradGradGradGradGradGradGradGradGradGradGrad

                          Input orientation:                          
 ---------------------------------------------------------------------
 Center     Atomic      Atomic             Coordinates (Angstroms)
 Number     Number       Type             X           Y           Z
 ---------------------------------------------------------------------
      1          6           0        1.090061   -1.802793   -0.256760
      2          6           0        2.580933   -1.801983   -0.201412
      3          6           0        2.996042   -0.562313   -0.214355
      4          6           0        1.826200    0.423393   -0.077586
      5          6           0        0.665441   -0.565555   -0.286283
      6          1           0        0.546727   -2.700887   -0.395977
      7          1           0        3.131532   -2.695425   -0.337474
      8          1           0        3.986347   -0.315694   -0.488945
      9          1           0        1.794995    0.890153    0.894506
     10          1           0        1.849801    1.216832   -0.796327
     11          1           0       -0.303382   -0.328736   -0.635038
 ---------------------------------------------------------------------
                    Distance matrix (angstroms):
                    1          2          3          4          5
     1  C    0.000000
     2  C    1.491899   0.000000
     3  C    2.274500   1.307388   0.000000
     4  C    2.351576   2.353137   1.535856   0.000000
     5  C    1.308408   2.281462   2.331714   1.539135   0.000000
     6  H    1.058852   2.232460   3.256629   3.391099   2.141441
     7  H    2.229554   1.058258   2.140954   3.390938   3.258922
     8  H    3.264022   2.065652   1.056846   2.319849   3.336453
     9  H    3.012358   3.011035   2.186720   1.078796   2.188433
    10  H    3.160138   3.162550   2.194976   1.070837   2.199944
    11  H    2.063401   3.267685   3.334327   2.326279   1.056566
                    6          7          8          9         10
     6  H    0.000000
     7  H    2.585473   0.000000
     8  H    4.186738   2.533135   0.000000
     9  H    4.014858   4.020010   2.858326   0.000000
    10  H    4.148108   4.142359   2.647253   1.722975   0.000000
    11  H    2.531192   4.181913   4.292236   2.868516   2.655370
                   11
    11  H    0.000000
 Stoichiometry    C5H6
 Framework group  C1[X(C5H6)]
 Deg. of freedom    27
 Full point group                 C1      NOp   1
 Largest Abelian subgroup         C1      NOp   1
 Largest concise Abelian subgroup C1      NOp   1
                         Standard orientation:                         
 ---------------------------------------------------------------------
 Center     Atomic      Atomic             Coordinates (Angstroms)
 Number     Number       Type             X           Y           Z
 ---------------------------------------------------------------------
      1          6           0       -0.968475    0.750430    0.045895
      2          6           0       -0.978861   -0.741414    0.053371
      3          6           0        0.253862   -1.165523   -0.045568
      4          6           0        1.257147   -0.008456    0.070482
      5          6           0        0.268978    1.166139   -0.042578
      6          1           0       -1.867866    1.304980   -0.022926
      7          1           0       -1.884011   -1.280325   -0.047575
      8          1           0        0.474430   -2.148269   -0.365701
      9          1           0        1.780159   -0.012502    1.014009
     10          1           0        2.006993   -0.014858   -0.693967
     11          1           0        0.494390    2.143914   -0.373453
 ---------------------------------------------------------------------
 Rotational constants (GHZ):      8.4056195      8.3407777      4.3271512
 Standard basis: 3-21G (6D, 7F)
 There are    57 symmetry adapted basis functions of A   symmetry.
 Integral buffers will be    262144 words long.
 Raffenetti 1 integral format.
 Two-electron integral symmetry is turned on.
    57 basis functions,    93 primitive gaussians,    57 cartesian basis functions
    18 alpha electrons       18 beta electrons
       nuclear repulsion energy       157.4854183594 Hartrees.
 NAtoms=   11 NActive=   11 NUniq=   11 SFac= 7.50D-01 NAtFMM=   80 NAOKFM=F Big=F
 One-electron integrals computed using PRISM.
 NBasis=    57 RedAO= T  NBF=    57
 NBsUse=    57 1.00D-06 NBFU=    57
 Initial guess read from the read-write file.
 B after Tr=     0.000000    0.000000    0.000000
         Rot=    1.000000    0.000000    0.000000    0.000000 Ang=   0.00 deg.
 Initial guess orbital symmetries:
       Occupied  (A) (A) (A) (A) (A) (A) (A) (A) (A) (A) (A) (A)
                 (A) (A) (A) (A) (A) (A)
       Virtual   (A) (A) (A) (A) (A) (A) (A) (A) (A) (A) (A) (A)
                 (A) (A) (A) (A) (A) (A) (A) (A) (A) (A) (A) (A)
                 (A) (A) (A) (A) (A) (A) (A) (A) (A) (A) (A) (A)
                 (A) (A) (A)
 Harris functional with IExCor=  205 diagonalized for initial guess.
 ExpMin= 1.83D-01 ExpMax= 1.72D+02 ExpMxC= 1.72D+02 IAcc=1 IRadAn=         1 AccDes= 0.00D+00
 HarFok:  IExCor=  205 AccDes= 0.00D+00 IRadAn=         1 IDoV= 1
 ScaDFX=  1.000000  1.000000  1.000000  1.000000
 FoFCou: FMM=F IPFlag=           0 FMFlag=      100000 FMFlg1=           0
         NFxFlg=           0 DoJE=T BraDBF=F KetDBF=T FulRan=T
         Omega=  0.000000  0.000000  1.000000  0.000000  0.000000 ICntrl=     500 IOpCl=  0
         NMat0=    1 NMatS0=    1 NMatT0=    0 NMatD0=    1 NMtDS0=    0 NMtDT0=    0
         I1Cent=           4 NGrid=           0.
 Petite list used in FoFCou.
 Requested convergence on RMS density matrix=1.00D-08 within 128 cycles.
 Requested convergence on MAX density matrix=1.00D-06.
 Requested convergence on             energy=1.00D-06.
 No special actions if energy rises.
 Keep R1 ints in memory in canonical form, NReq=2195637.
 SCF Done:  E(RHF) =  -191.699181853     A.U. after   13 cycles
             Convg  =    0.8875D-08             -V/T =  2.0007
 Calling FoFJK, ICntrl=      2127 FMM=F ISym2X=0 I1Cent= 0 IOpClX= 0 NMat=1 NMatS=1 NMatT=0.
 ***** Axes restored to original set *****
 -------------------------------------------------------------------
 Center     Atomic                   Forces (Hartrees/Bohr)
 Number     Number              X              Y              Z
 -------------------------------------------------------------------
      1        6           0.023444410   -0.016355871    0.003074229
      2        6          -0.025946879   -0.015418093   -0.004667166
      3        6           0.014371117    0.018251063   -0.001144871
      4        6          -0.000746634   -0.022759027   -0.014585812
      5        6          -0.010414419    0.016856540   -0.004816764
      6        1          -0.009680583   -0.003590100   -0.000946522
      7        1           0.010360542   -0.004012715    0.001802789
      8        1           0.012652776    0.012759595    0.012304406
      9        1          -0.000136453   -0.002439537    0.007012405
     10        1           0.000143190    0.003380300   -0.010311004
     11        1          -0.014047067    0.013327845    0.012278310
 -------------------------------------------------------------------
 Cartesian Forces:  Max     0.025946879 RMS     0.012128696

 GradGradGradGradGradGradGradGradGradGradGradGradGradGradGradGradGradGrad
 Berny optimization.
 Using GEDIIS/GDIIS optimizer.
 Internal  Forces:  Max     0.026062374 RMS     0.008958289
 Search for a local minimum.
 Step number   5 out of a maximum of   63
 All quantities printed in internal units (Hartrees-Bohrs-Radians)
 Mixed Optimization -- RFO/linear search
 Update second derivatives using D2CorX and points    4    5
 Use linear search instead of GDIIS.
     Eigenvalues ---    0.00473   0.00480   0.00534   0.00586   0.00596
     Eigenvalues ---    0.02688   0.05482   0.07213   0.07795   0.08897
     Eigenvalues ---    0.15189   0.15465   0.15568   0.15762   0.21889
     Eigenvalues ---    0.22677   0.28291   0.28427   0.29929   0.30053
     Eigenvalues ---    0.30985   0.31647   0.31654   0.31677   0.31681
     Eigenvalues ---    0.31702   0.422801000.000001000.000001000.00000
     Eigenvalues --- 1000.000001000.000001000.000001000.000001000.00000
     Eigenvalues --- 1000.000001000.000001000.000001000.000001000.00000
     Eigenvalues --- 1000.000001000.000001000.000001000.000001000.00000
     Eigenvalues --- 1000.000001000.000001000.000001000.000001000.00000
     Eigenvalues --- 1000.000001000.000001000.00000
 RFO step:  Lambda=-2.95820923D-02 EMin= 4.72582747D-03
 Quartic linear search produced a step of  0.17796.
 Iteration  1 RMS(Cart)=  0.09630833 RMS(Int)=  0.01323215
 Iteration  2 RMS(Cart)=  0.01219991 RMS(Int)=  0.00505615
 Iteration  3 RMS(Cart)=  0.00016867 RMS(Int)=  0.00505224
 Iteration  4 RMS(Cart)=  0.00000087 RMS(Int)=  0.00505224
 Variable       Old X    -DE/DX   Delta X   Delta X   Delta X     New X
                                 (Linear)    (Quad)   (Total)
    R1        2.81928   0.00694  -0.00023   0.02271   0.02417   2.84345
    R2        2.47253   0.02513  -0.00692   0.07545   0.06912   2.54165
    R3        2.00094   0.00814  -0.00454   0.02973   0.02519   2.02613
    R4        2.47061   0.02606  -0.00732   0.07945   0.07267   2.54327
    R5        1.99982   0.00855  -0.00473   0.03127   0.02653   2.02635
    R6        2.90235  -0.00451   0.00335  -0.02048  -0.01850   2.88385
    R7        1.99715   0.01164  -0.00513   0.04114   0.03602   2.03316
    R8        2.90854  -0.00530   0.00389  -0.02390  -0.02130   2.88724
    R9        2.03863   0.00527  -0.00399   0.02099   0.01700   2.05563
   R10        2.02359   0.00943  -0.00293   0.03172   0.02879   2.05238
   R11        1.99662   0.01181  -0.00527   0.04190   0.03664   2.03326
    A1        1.90142   0.00140  -0.00289   0.01562   0.01103   1.91245
    A2        2.11545   0.00629   0.00636   0.04495   0.03888   2.15432
    A3        2.25563  -0.00711   0.02288  -0.04967  -0.03922   2.21641
    A4        1.89382   0.00274  -0.00240   0.02407   0.01820   1.91203
    A5        2.11146   0.00623   0.00699   0.04876   0.04168   2.15313
    A6        2.25759  -0.00784   0.02359  -0.04909  -0.03966   2.21792
    A7        1.94532  -0.01265   0.00689  -0.05737  -0.05369   1.89163
    A8        2.11924   0.01575   0.01328   0.08112   0.08513   2.20437
    A9        2.19827  -0.00273   0.00969  -0.01374  -0.01416   2.18411
   A10        1.72135   0.02138  -0.01246   0.10492   0.09291   1.81426
   A11        1.96055  -0.01125   0.00108  -0.08664  -0.08402   1.87653
   A12        1.98120  -0.00299   0.00482   0.01904   0.01942   2.00062
   A13        1.95883  -0.01128   0.00117  -0.08630  -0.08325   1.87558
   A14        1.98417  -0.00307   0.00501   0.01709   0.01719   2.00136
   A15        1.85966   0.00649   0.00027   0.02759   0.02858   1.88824
   A16        1.93882  -0.01120   0.00717  -0.05130  -0.04769   1.89114
   A17        2.11411   0.01566   0.01294   0.08450   0.08764   2.20175
   A18        2.20467  -0.00390   0.01053  -0.01795  -0.01815   2.18653
    D1       -0.01174   0.00049  -0.00778   0.01809   0.01111  -0.00064
    D2       -2.95725  -0.00384  -0.07894  -0.08815  -0.17077  -3.12801
    D3        2.98700   0.00364   0.06734   0.08551   0.15631  -3.13988
[...]
    A4        1.90748   0.00002   0.00000   0.00003   0.00003   1.90751
    A5        2.16662   0.00000   0.00000   0.00004   0.00004   2.16666
    A6        2.20909  -0.00002   0.00000  -0.00007  -0.00007   2.20901
    A7        1.91388   0.00000   0.00000   0.00000   0.00000   1.91389
    A8        2.21528   0.00001   0.00000   0.00007   0.00007   2.21536
    A9        2.15402  -0.00001   0.00000  -0.00008  -0.00008   2.15394
   A10        1.78200  -0.00001   0.00000  -0.00002  -0.00002   1.78198
   A11        1.94762   0.00001   0.00000   0.00026   0.00026   1.94788
   A12        1.94819  -0.00001   0.00000  -0.00031  -0.00031   1.94788
   A13        1.94760   0.00001   0.00000   0.00029   0.00029   1.94788
   A14        1.94821  -0.00001   0.00000  -0.00033  -0.00033   1.94788
   A15        1.88993   0.00001   0.00000   0.00010   0.00010   1.89003
   A16        1.91389  -0.00001   0.00000   0.00000   0.00000   1.91389
   A17        2.21526   0.00002   0.00000   0.00010   0.00010   2.21536
   A18        2.15404  -0.00001   0.00000  -0.00010  -0.00010   2.15394
    D1       -0.00035   0.00002   0.00000   0.00035   0.00035   0.00000
    D2       -3.14085  -0.00001   0.00000  -0.00074  -0.00074  -3.14159
    D3       -3.14136   0.00000   0.00000  -0.00023  -0.00023  -3.14159
    D4        0.00132  -0.00003   0.00000  -0.00132  -0.00132   0.00000
    D5        0.00022  -0.00002   0.00000  -0.00022  -0.00022   0.00000
    D6        3.14138  -0.00001   0.00000   0.00021   0.00021  -3.14159
    D7        3.14122   0.00000   0.00000   0.00037   0.00037   3.14159
    D8       -0.00081   0.00001   0.00000   0.00081   0.00081   0.00000
    D9        0.00032   0.00000   0.00000  -0.00032  -0.00032   0.00000
   D10        3.14105   0.00001   0.00000   0.00054   0.00054  -3.14159
   D11        3.14079   0.00002   0.00000   0.00080   0.00080   3.14159
   D12       -0.00166   0.00004   0.00000   0.00166   0.00166   0.00000
   D13       -0.00018  -0.00001   0.00000   0.00018   0.00018   0.00000
   D14        2.08219   0.00001   0.00000   0.00063   0.00063   2.08282
   D15       -2.08355   0.00002   0.00000   0.00073   0.00073  -2.08282
   D16       -3.14095  -0.00002   0.00000  -0.00064  -0.00064   3.14159
   D17       -1.05858   0.00000   0.00000  -0.00020  -0.00020  -1.05877
   D18        1.05887   0.00000   0.00000  -0.00010  -0.00010   1.05877
   D19       -0.00004   0.00002   0.00000   0.00004   0.00004   0.00000
   D20       -3.14122   0.00000   0.00000  -0.00038  -0.00038   3.14159
   D21       -2.08243   0.00000   0.00000  -0.00039  -0.00039  -2.08282
   D22        1.05958  -0.00001   0.00000  -0.00081  -0.00081   1.05877
   D23        2.08331   0.00000   0.00000  -0.00049  -0.00049   2.08282
   D24       -1.05787  -0.00002   0.00000  -0.00091  -0.00091  -1.05877
         Item               Value     Threshold  Converged?
 Maximum Force            0.000132     0.000450     YES
 RMS     Force            0.000029     0.000300     YES
 Maximum Displacement     0.000943     0.001800     YES
 RMS     Displacement     0.000259     0.001200     YES
 Predicted change in Energy=-1.443155D-07
 Optimization completed.
    -- Stationary point found.
                           ----------------------------
                           !   Optimized Parameters   !
                           ! (Angstroms and Degrees)  !
 --------------------------                            --------------------------
 ! Name  Definition              Value          Derivative Info.                !
 --------------------------------------------------------------------------------
 ! R1    R(1,2)                  1.4847         -DE/DX =    0.0                 !
 ! R2    R(1,5)                  1.3294         -DE/DX =   -0.0001              !
 ! R3    R(1,6)                  1.069          -DE/DX =    0.0001              !
 ! R4    R(2,3)                  1.3294         -DE/DX =   -0.0001              !
 ! R5    R(2,7)                  1.069          -DE/DX =    0.0001              !
 ! R6    R(3,4)                  1.5193         -DE/DX =    0.0                 !
 ! R7    R(3,8)                  1.0688         -DE/DX =    0.0                 !
 ! R8    R(4,5)                  1.5193         -DE/DX =    0.0                 !
 ! R9    R(4,9)                  1.0866         -DE/DX =    0.0                 !
 ! R10   R(4,10)                 1.0865         -DE/DX =    0.0                 !
 ! R11   R(5,11)                 1.0688         -DE/DX =    0.0                 !
 ! A1    A(2,1,5)              109.2931         -DE/DX =    0.0                 !
 ! A2    A(2,1,6)              124.138          -DE/DX =    0.0                 !
 ! A3    A(5,1,6)              126.5689         -DE/DX =    0.0                 !
 ! A4    A(1,2,3)              109.2903         -DE/DX =    0.0                 !
 ! A5    A(1,2,7)              124.1383         -DE/DX =    0.0                 !
 ! A6    A(3,2,7)              126.5713         -DE/DX =    0.0                 !
 ! A7    A(2,3,4)              109.6575         -DE/DX =    0.0                 !
 ! A8    A(2,3,8)              126.9263         -DE/DX =    0.0                 !
 ! A9    A(4,3,8)              123.4162         -DE/DX =    0.0                 !
 ! A10   A(3,4,5)              102.1013         -DE/DX =    0.0                 !
 ! A11   A(3,4,9)              111.5904         -DE/DX =    0.0                 !
 ! A12   A(3,4,10)             111.6232         -DE/DX =    0.0                 !
 ! A13   A(5,4,9)              111.589          -DE/DX =    0.0                 !
 ! A14   A(5,4,10)             111.6245         -DE/DX =    0.0                 !
 ! A15   A(9,4,10)             108.2852         -DE/DX =    0.0                 !
 ! A16   A(1,5,4)              109.6577         -DE/DX =    0.0                 !
 ! A17   A(1,5,11)             126.9248         -DE/DX =    0.0                 !
 ! A18   A(4,5,11)             123.4174         -DE/DX =    0.0                 !
 ! D1    D(5,1,2,3)             -0.02           -DE/DX =    0.0                 !
 ! D2    D(5,1,2,7)           -179.9577         -DE/DX =    0.0                 !
 ! D3    D(6,1,2,3)           -179.9869         -DE/DX =    0.0                 !
 ! D4    D(6,1,2,7)              0.0754         -DE/DX =    0.0                 !
 ! D5    D(2,1,5,4)              0.0127         -DE/DX =    0.0                 !
 ! D6    D(2,1,5,11)          -180.0122         -DE/DX =    0.0                 !
 ! D7    D(6,1,5,4)            179.9786         -DE/DX =    0.0                 !
 ! D8    D(6,1,5,11)            -0.0462         -DE/DX =    0.0                 !
 ! D9    D(1,2,3,4)              0.0182         -DE/DX =    0.0                 !
 ! D10   D(1,2,3,8)           -180.0312         -DE/DX =    0.0                 !
 ! D11   D(7,2,3,4)            179.954          -DE/DX =    0.0                 !
 ! D12   D(7,2,3,8)             -0.0954         -DE/DX =    0.0                 !
 ! D13   D(2,3,4,5)             -0.0104         -DE/DX =    0.0                 !
 ! D14   D(2,3,4,9)            119.3006         -DE/DX =    0.0                 !
 ! D15   D(2,3,4,10)          -119.3784         -DE/DX =    0.0                 !
 ! D16   D(8,3,4,5)            180.0368         -DE/DX =    0.0                 !
 ! D17   D(8,3,4,9)            -60.6522         -DE/DX =    0.0                 !
 ! D18   D(8,3,4,10)            60.6688         -DE/DX =    0.0                 !
 ! D19   D(3,4,5,1)             -0.0022         -DE/DX =    0.0                 !
 ! D20   D(3,4,5,11)           180.0216         -DE/DX =    0.0                 !
 ! D21   D(9,4,5,1)           -119.3142         -DE/DX =    0.0                 !
 ! D22   D(9,4,5,11)            60.7096         -DE/DX =    0.0                 !
 ! D23   D(10,4,5,1)           119.365          -DE/DX =    0.0                 !
 ! D24   D(10,4,5,11)          -60.6112         -DE/DX =    0.0                 !
 --------------------------------------------------------------------------------
 GradGradGradGradGradGradGradGradGradGradGradGradGradGradGradGradGradGrad

 1|1|UNPC-DESKTOP-K2VF0AK|Freq|RHF|3-21G|C5H6|MELIH|10-Dec-2024|0||#N G
 eom=AllCheck Guess=TCheck SCRF=Check GenChk RHF/3-21G Freq||Title Card
  Required||0,1|C,1.0959228465,-1.8198263665,-0.3648029133|C,2.57989328
 16,-1.8170971595,-0.3178459896|C,3.0133318441,-0.5656592022,-0.2022954
 418|C,1.8281229071,0.3840338537,-0.161835956|C,0.6513876379,-0.5700946
 585,-0.2766024431|H,0.50017994,-2.7028541713,-0.4552633973|H,3.1834461
 633,-2.6978204036,-0.3715181894|H,4.0299234657,-0.2410871786,-0.143384
 7284|H,1.797812127,0.9462569282,0.7675012722|H,1.8527664022,1.09044040
 67,-0.9869467392|H,-0.3680896754,-0.2492998084,-0.2826564742||Version=
 IA32W-G09RevA.02|State=1-A|HF=-191.7170796|RMSD=1.121e-009|RMSF=6.799e
 -005|ZeroPoint=0.1000762|Thermal=0.103926|Dipole=-0.0006744,0.1507721,
 0.0123942|DipoleDeriv=0.1070396,0.1403579,0.0202687,0.1900472,-0.03854
 99,0.0167979,0.0241966,0.0151289,-0.1718738,0.1099476,-0.1404757,-0.00
 27211,-0.1901582,-0.0399056,0.005119,-0.0067292,0.0071089,-0.1734777,-
 0.0851565,-0.025556,0.0044834,-0.0049112,0.077946,0.0299282,0.0064718,
 0.0295221,-0.2868383,-0.0782815,0.0011451,-0.009468,0.0011549,-0.15903
 87,-0.0314661,-0.0095957,-0.0317642,0.2227505,-0.0854004,0.0230187,0.0
 084261,0.002355,0.078066,0.0302229,0.0067666,0.0306387,-0.2867399,0.00
 13432,-0.0823511,-0.0126052,-0.0829895,-0.0304143,-0.0204675,-0.012603
 9,-0.0203121,0.186531,-0.0001194,0.0835815,0.0009001,0.0842168,-0.0297
 36,-0.0152284,0.0010033,-0.0155197,0.1873489,-0.0812843,-0.0287801,-0.
 0103347,-0.024342,0.062471,-0.0097848,-0.010181,-0.0100688,0.1714888,0
 .0968605,0.0031119,0.0040031,0.0028501,0.0233036,-0.086647,0.0040409,-
 0.0934695,-0.0256592,0.0968151,-0.0028684,0.0027079,-0.002616,-0.00679
 24,0.0897574,0.0027294,0.096711,0.0046819,-0.0817639,0.0288161,-0.0056
 602,0.0243929,0.0626503,-0.0082315,-0.0060988,-0.0079753,0.1717878|Pol
 ar=47.2122724,-0.1101444,56.2685626,0.8471011,2.9730296,20.0973799|Pol
 arDeriv=8.1183276,-0.5118105,-0.9481123,0.1271374,0.071413,0.0073865,-
 5.028881,5.0649536,-3.4239009,0.0311072,0.2679154,0.4312679,-0.3252582
 ,0.3457873,0.536294,2.6336255,-5.1634968,-0.663733,-8.0645821,-0.52001
 35,0.9213617,-0.2090941,0.2199147,0.0369361,-4.9967916,-5.0799254,-3.4
 629771,-0.3727448,-0.0377641,0.4060041,-0.4912053,-0.0598796,0.6080155
 ,-2.5914576,-5.1818792,-0.9642139,2.1226031,-0.9048184,1.1634876,-0.18
 26301,-0.1453244,0.3589368,4.5920917,3.8233686,4.54494,0.0489777,0.030
 4037,-0.1170621,0.1162947,-0.3012115,-0.5178991,4.9644522,5.601092,1.2
 246514,-0.0304493,2.261194,-0.0084638,0.1813167,0.3107566,0.0685784,2.
 2983905,0.0014739,-5.1160223,0.1927132,0.5349852,-3.8336505,0.1852747,
 0.3091899,0.8487653,0.0757963,-7.632659,-1.5824932,-2.1467456,-0.89731
 64,-1.1518978,0.0329029,-0.2667985,-0.4256908,4.5992787,-3.8206245,4.5
 094786,0.2440764,-0.2012054,-0.1064857,0.630547,-0.1055357,-0.5885735,
 -5.0241516,5.5834245,0.590684,-2.5263777,-3.3019736,-2.924199,-0.29181
 36,-0.2881278,-0.3038214,-2.1041998,-3.2152666,-6.9998242,-0.1958899,-
 0.5686807,-0.3046645,-0.1547664,-0.2097476,-0.4988049,-1.540852,-1.031
 9632,-0.2876097,2.6040026,-3.3376523,2.9508256,-0.2492349,0.1463235,0.
 282903,-2.1360423,3.2501783,-6.9633484,0.0826114,-0.36907,-0.2861527,-
 0.1907518,0.0686784,-0.3214973,1.5286846,-1.0040262,-0.0847832,9.32390
 18,2.2639625,0.5629179,0.4294419,0.0970672,0.3805308,1.8898685,1.90895
 95,1.6300333,0.1108666,0.2099137,0.0868076,0.3747443,0.1341305,0.19425
 56,1.2802583,-0.2447734,0.0592709,-0.1294771,1.2089941,-0.08949,1.8761
 53,-0.1128883,-0.0761454,-0.5199439,-0.1059383,6.1051407,-0.0783172,3.
 0358528,1.8979262,0.261926,-0.1150348,2.61083,-0.1323881,4.724293,6.06
 47628,0.1097506,1.4965797,0.0870225,-1.6521085,-0.095165,0.0254553,-0.
 470266,0.0819502,7.5627095,-0.0672268,-2.9902232,1.7469901,-0.3413528,
 -0.0925819,-3.0294504,0.0614479,4.6035097,-4.2269716,-9.3809538,2.2428
 546,-0.5634526,-0.0620706,0.0628289,-0.3550695,1.8764954,-1.9091294,1.
 6137709,0.0038264,0.0878727,0.0790196,-0.0654523,0.0262049,0.158065,-1
 .2554155,-0.2535213,-0.1295645|HyperPolar=0.0452391,-3.5148472,0.21206
 37,-14.8513778,-0.2826689,-1.039915,-6.3541767,-0.3126017,30.5820918,7
 .6371509|PG=C01 [X(C5H6)]|NImag=0||0.61051848,0.04630394,0.99529371,0.
 01748676,0.06862719,0.17782129,-0.20349354,0.00044802,-0.00388803,0.61
 137385,-0.00056411,-0.11758208,-0.00322752,-0.05200787,0.99477791,-0.0
 0396998,-0.00318770,-0.07870111,0.00943141,0.06572455,0.17735722,-0.04
 974934,-0.03780721,-0.00511487,-0.17014101,-0.12699426,-0.01299983,0.7
 8581397,-0.04872799,-0.00253016,-0.00297494,-0.13099740,-0.52690528,-0
 .04010061,0.20246626,0.80468295,-0.00602244,-0.00264644,0.01476234,-0.
 01334306,-0.03996845,-0.08952600,0.03556109,0.05713903,0.18906055,0.00
 325565,-0.00883344,-0.00081916,0.00305903,0.00942673,0.00067228,-0.149
 28495,0.05553183,0.00264404,0.42191422,-0.01295373,-0.06189790,-0.0059
 7650,0.01354450,-0.06180929,-0.00515234,0.02381972,-0.11753566,-0.0015
 7266,-0.00045212,0.63329027,-0.00112476,-0.00587013,0.00585312,0.00096
 863,-0.00527323,0.00596336,0.00005595,-0.00058631,-0.08895245,-0.00576
 428,0.00200414,0.60515168,-0.17247104,0.13063217,0.00794896,-0.0505147
 0,0.03771722,0.00102451,-0.06718895,-0.00727344,-0.00292887,-0.1485866
 3,-0.02379553,-0.00382083,0.78945270,0.13463683,-0.52603988,-0.0317248
 2,0.04863784,-0.00220960,0.00010507,0.00715257,-0.01075837,-0.00122220
 ,-0.05551012,-0.11784275,-0.00406494,-0.20576202,0.80329426,0.00826490
 ,-0.03184113,-0.08817907,0.00191442,-0.00022014,0.01520985,-0.00172759
 ,-0.00168627,0.00680557,-0.00642093,-0.00309660,-0.08936113,0.00231010
 ,0.04414494,0.18694236,-0.17108123,-0.14646006,-0.01568766,-0.00468800
 ,-0.02752677,-0.00246057,-0.00705429,-0.00011834,-0.00027946,-0.001443
 70,0.00331526,-0.00022029,0.01428642,0.01411648,0.00132123,0.16861415,
 -0.14285692,-0.28691281,-0.02369350,0.00580563,0.00763048,0.00061437,0
 .00303358,-0.00031785,-0.00005419,0.00218598,-0.00355073,-0.00138329,-
 0.02487164,-0.01565715,-0.00277614,0.15817759,0.29897271,-0.01538044,-
 0.02377833,-0.05317286,0.00024419,-0.00043550,0.00230105,-0.00002257,-
 0.00015144,0.00151113,-0.00031428,-0.00135457,0.01416252,-0.00186030,-
 0.00157682,0.00871281,0.01714737,0.02667853,0.03472258,-0.00487887,0.0
 2745166,0.00202664,-0.17365873,0.14808604,0.00833264,0.01418887,-0.013
 87818,-0.00096629,-0.00139598,-0.00321637,-0.00074648,-0.00702831,0.00
 010259,-0.00025977,0.00012517,-0.00104316,-0.00006601,0.17143276,-0.00
 587775,0.00770988,0.00025519,0.14448256,-0.28579454,-0.01480814,0.0251
 0662,-0.01561369,-0.00122993,-0.00208595,-0.00357013,-0.00152675,-0.00
 304871,-0.00032845,-0.00024776,0.00104051,0.00006119,0.00007735,-0.160
 01392,0.29775158,-0.00071548,0.00130654,0.00241313,0.00806211,-0.01475
 384,-0.05171384,0.00221612,-0.00240719,0.00876865,-0.00066506,-0.00155
 757,0.01413411,-0.00051741,-0.00014854,0.00149577,0.00010476,0.0000120
 9,-0.00048101,-0.00880482,0.01684499,0.03312280,0.00024889,-0.00087742
 ,-0.00037441,-0.00241934,0.00446264,-0.00002711,-0.35877080,-0.0952672
 2,-0.01779155,-0.01117906,-0.01202644,-0.00135921,-0.00156467,0.002698
 84,0.00019023,-0.00018082,0.00000768,-0.00001993,0.00042704,-0.0009182
 7,0.00016765,0.37416297,-0.00140811,-0.00591817,-0.00132069,-0.0342414
 0,0.00091683,-0.00180478,-0.08930310,-0.09982003,-0.00742041,0.0196901
 3,0.01256990,0.00159824,0.00481704,-0.00429782,-0.00015332,-0.00162155
 ,0.00047026,-0.00005130,0.00106295,0.00067210,0.00067575,0.10178809,0.
 09358137,-0.00041451,-0.00130137,0.00961310,-0.00315520,-0.00055560,0.
 00959328,-0.01734538,-0.00764027,-0.04493283,0.00124291,0.00059427,0.0
 0071685,0.00036325,-0.00022281,-0.00058307,-0.00015341,0.00000024,0.00
 046999,0.00032305,0.00061746,-0.00712406,0.01929361,0.00852849,0.03010
 251,-0.00488889,-0.00348580,0.00242357,-0.00481083,0.00339748,-0.00272
 632,0.00096598,0.01821676,0.02897026,-0.05264511,0.00404331,0.00666460
 ,0.00286031,-0.01813893,-0.02880574,0.00042782,-0.00083784,0.00217950,
 0.00055909,0.00084172,-0.00212784,-0.00007820,-0.00069890,-0.00114017,
 0.05721816,-0.00130203,-0.00162736,-0.00086747,0.00134303,-0.00160803,
 -0.00079582,-0.00087491,-0.01222536,-0.01691573,0.00424669,-0.12373122
 ,-0.13074385,0.00199244,-0.01228527,-0.01693580,0.00003765,-0.00082668
 ,0.00169111,-0.00013774,-0.00082483,0.00167800,0.00040321,0.00024586,0
 .00058804,-0.00453046,0.13795020,-0.00127033,0.00106656,0.00002796,0.0
 0096153,0.00128682,-0.00006274,0.00024359,0.00020911,0.00120446,0.0066
 5257,-0.12427233,-0.25637266,-0.00014097,-0.00093892,-0.00062773,0.000
 02877,0.00000350,-0.00033746,0.00002744,0.00005642,-0.00047316,0.00069
 353,-0.00044612,0.00017694,-0.00737188,0.13916825,0.28294466,-0.004774
 15,-0.00294185,-0.00324577,-0.00493445,0.00302122,0.00294329,0.0027183
 6,0.02271688,-0.02559599,-0.05258420,-0.00415536,0.00474695,0.00116318
 ,-0.02252303,0.02549138,0.00056547,-0.00047728,-0.00221958,0.00042414,
 0.00048336,0.00230189,-0.00010497,-0.00090020,0.00099266,0.00049923,-0
 .00073656,0.00088560,0.05710865,-0.00152374,-0.00152390,0.00053159,0.0
 0147337,-0.00150825,0.00063629,-0.00181190,-0.01465027,0.01434958,-0.0
 0435891,-0.16846324,0.14549658,0.00096643,-0.01473331,0.01453259,0.000
 14313,-0.00054181,-0.00170517,-0.00003300,-0.00053939,-0.00170140,0.00
 054839,0.00026727,-0.00054427,0.00046816,0.01468611,-0.01572934,0.0046
 4177,0.18673767,0.00072530,-0.00151157,-0.00018435,-0.00101852,-0.0013
 2767,-0.00004578,-0.00044795,-0.00141303,0.00191988,0.00476018,0.13903
 743,-0.21197160,0.00040460,-0.00283832,0.00355520,0.00005149,-0.000068
 50,-0.00076218,0.00002296,-0.00003812,-0.00062059,-0.00063216,0.000408
 89,0.00017733,0.00081369,0.02256829,-0.02668331,-0.00529372,-0.1552842
 9,0.23446099,-0.00268595,-0.00443001,-0.00075602,0.00022772,0.00098168
 ,-0.00022032,-0.00149785,-0.00266917,-0.00024772,-0.01110927,0.0118767
 8,0.00059973,-0.36040831,0.09458897,-0.00227822,0.00042901,0.00087639,
 0.00031203,-0.00019519,-0.00001016,-0.00002192,-0.00054104,0.00081505,
 -0.00000682,-0.00010755,-0.00044133,-0.00070986,-0.00008125,-0.0005137
 0,0.00061414,0.37596968,0.03427360,0.00102867,0.00037146,0.00151171,-0
 .00590814,-0.00123088,-0.00478736,-0.00432628,-0.00045860,-0.01984080,
 0.01254075,0.00034954,0.08862605,-0.09914166,-0.00172037,-0.00110388,0
 .00067239,0.00060614,0.00161914,0.00047628,0.00005116,-0.00081949,0.00
 131244,-0.00006419,0.00072451,0.00024657,-0.00040396,0.00087103,0.0002
 6910,0.00046688,-0.10107450,0.09282990,0.00242098,-0.00086363,0.009746
 44,-0.00017747,-0.00124942,0.00962470,-0.00041855,-0.00038808,-0.00062
 129,-0.00198827,0.00134672,0.00067622,-0.00278304,-0.00151263,-0.04397
 057,0.00014776,0.00066689,-0.00712656,0.00011064,-0.00000072,0.0004781
 8,-0.00014067,-0.00001475,0.00178996,0.00112034,0.00056499,0.00020304,
 -0.00100671,-0.00058217,0.00015443,0.00271498,0.00203281,0.02904545||-
 0.00002758,-0.00011864,-0.00008143,0.00002111,-0.00018558,0.00011248,0
 .00008587,0.00014256,-0.00004987,0.00000053,0.00004101,-0.00011313,-0.
 00007297,0.00009562,0.00008096,0.00003468,0.00003864,0.00002735,-0.000
 03569,0.00004241,-0.00005634,-0.00003643,-0.00002276,0.00003563,-0.000
 00305,-0.00000278,0.00000843,-0.00000025,-0.00000994,0.00005435,0.0000
 3378,-0.00002054,-0.00001842|||@


 KNOWLEDGE IS EXPERIMENT'S DAUGHTER.
 -- LEONARDO DA VINCI, IN "PENSIERI" CA. 1492
 Job cpu time:  0 days  0 hours  0 minutes  5.0 seconds.
 File lengths (MBytes):  RWF=      8 Int=      0 D2E=      0 Chk=      1 Scr=      1
 Normal termination of Gaussian 09 at Tue Dec 10 11:17:37 2024.
