 Entering Link 1 = C:\G09W\l1.exe PID=     25628.
  
 Copyright (c) 1988,1990,1992,1993,1995,1998,2003,2009, Gaussian, Inc.
                  All Rights Reserved.
  
 This is part of the Gaussian(R) 09 program.  It is based on
 the Gaussian(R) 03 system (copyright 2003, Gaussian, Inc.),
 the Gaussian(R) 98 system (copyright 1998, Gaussian, Inc.),
 the Gaussian(R) 94 system (copyright 1995, Gaussian, Inc.),
 the Gaussian 92(TM) system (copyright 1992, Gaussian, Inc.),
 the Gaussian 90(TM) system (copyright 1990, Gaussian, Inc.),
 the Gaussian 88(TM) system (copyright 1988, Gaussian, Inc.),
 the Gaussian 86(TM) system (copyright 1986, Carnegie Mellon
 University), and the Gaussian 82(TM) system (copyright 1983,
 Carnegie Mellon University). Gaussian is a federally registered
 trademark of Gaussian, Inc.
  
 This software contains proprietary and confidential information,
 including trade secrets, belonging to Gaussian, Inc.
  
 This software is provided under written license and may be
 used, copied, transmitted, or stored only in accord with that
 written license.
  
 The following legend is applicable only to US Government
 contracts under FAR:
  
                    RESTRICTED RIGHTS LEGEND
  
 Use, reproduction and disclosure by the US Government is
 subject to restrictions as set forth in subparagraphs (a)
 and (c) of the Commercial Computer Software - Restricted
 Rights clause in FAR 52.227-19.
  
 Gaussian, Inc.
 340 Quinnipiac St., Bldg. 40, Wallingford CT 06492
  
  
 ---------------------------------------------------------------
 Warning -- This program may not be used in any manner that
 competes with the business of Gaussian, Inc. or will provide
 assistance to any competitor of Gaussian, Inc.  The licensee
 of this program is prohibited from giving any competitor of
 Gaussian, Inc. access to this program.  By using this program,
 the user acknowledges that Gaussian, Inc. is engaged in the
 business of creating and licensing software in the field of
 computational chemistry and represents and warrants to the
 licensee that it is not a competitor of Gaussian, Inc. and that
 it will not use this program in any manner prohibited above.
 ---------------------------------------------------------------
  

 Cite this work as:
 Gaussian 09, Revision A.02,
 M. J. Frisch, G. W. Trucks, H. B. Schlegel, G. E. Scuseria, 
 M. A. Robb, J. R. Cheeseman, G. Scalmani, V. Barone, B. Mennucci, 
 G. A. Petersson, H. Nakatsuji, M. Caricato, X. Li, H. P. Hratchian, 
 A. F. Izmaylov, J. Bloino, G. Zheng, J. L. Sonnenberg, M. Hada, 
 M. Ehara, K. Toyota, R. Fukuda, J. Hasegawa, M. Ishida, T. Nakajima, 
 Y. Honda, O. Kitao, H. Nakai, T. Vreven, J. A. Montgomery, Jr., 
 J. E. Peralta, F. Ogliaro, M. Bearpark, J. J. Heyd, E. Brothers, 
 K. N. Kudin, V. N. Staroverov, R. Kobayashi, J. Normand, 
 K. Raghavachari, A. Rendell, J. C. Burant, S. S. Iyengar, J. Tomasi, 
 M. Cossi, N. Rega, J. M. Millam, M. Klene, J. E. Knox, J. B. Cross, 
 V. Bakken, C. Adamo, J. Jaramillo, R. Gomperts, R. E. Stratmann, 
 O. Yazyev, A. J. Austin, R. Cammi, C. Pomelli, J. W. Ochterski, 
 R. L. Martin, K. Morokuma, V. G. Zakrzewski, G. A. Voth, 
 P. Salvador, J. J. Dannenberg, S. Dapprich, A. D. Daniels, 
 O. Farkas, J. B. Foresman, J. V. Ortiz, J. Cioslowski, 
 and D. J. Fox, Gaussian, Inc., Wallingford CT, 2009.
 
 ******************************************
 Gaussian 09:  IA32W-G09RevA.02 11-Jun-2009
                03-Dec-2024 
 ******************************************
 %chk=C:\G09W\ethoxide\optfreqbr.chk
 -------------------------------------
 # opt freq hf/3-21g geom=connectivity
 -------------------------------------
 1/18=20,19=15,38=1,57=2/1,3;
 2/9=110,12=2,17=6,18=5,40=1/2;
 3/5=5,11=9,16=1,25=1,30=1,71=1/1,2,3;
 4//1;
 5/5=2,38=5/2;
 6/7=2,8=2,9=2,10=2,28=1/1;
 7//1,2,3,16;
 1/18=20,19=15/3(2);
 2/9=110/2;
 99//99;
 2/9=110/2;
 3/5=5,11=9,16=1,25=1,30=1,71=1/1,2,3;
 4/5=5,16=3/1;
 5/5=2,38=5/2;
 7//1,2,3,16;
 1/18=20,19=15/3(-5);
 2/9=110/2;
 6/7=2,8=2,9=2,10=2,19=2,28=1/1;
 99/9=1/99;
 -------------------
 Title Card Required
 -------------------
 Symbolic Z-matrix:
 Charge = -1 Multiplicity = 1
 C                    -3.88326   0.35715  0. 
 H                    -3.5266   -0.65166  0. 
 H                    -3.52658   0.86155   0.87365 
 H                    -4.95326   0.35716  0. 
 C                    -3.36991   1.08311  -1.25741 
 H                    -3.72657   2.09192  -1.25741 
 C                    -3.88326   0.35715  -2.51481 
 H                    -4.95326   0.35716  -2.51481 
 H                    -3.5266   -0.65166  -2.51481 
 C                    -3.36991   1.0831   -3.77221 
 H                    -2.29991   1.08478  -3.77124 
 H                    -3.72499   0.57758  -4.64586 
 H                    -3.72816   2.09135  -3.77319 
 Br                   -0.56991   1.08308  -1.2574 
 C                    -5.90013   2.35707  -1.09996 
 H                    -5.38419   2.92003  -0.35043 
 H                    -5.86928   2.88748  -2.02873 
 C                    -7.36578   2.1554   -0.67242 
 H                    -7.39668   1.6233    0.25538 
 H                    -7.8368    3.10867  -0.55273 
 H                    -7.88221   1.59411  -1.42286 
 O                    -5.26991   1.08313  -1.25741 
 

 GradGradGradGradGradGradGradGradGradGradGradGradGradGradGradGradGradGrad
 Berny optimization.
 Initialization pass.
                           ----------------------------
                           !    Initial Parameters    !
                           ! (Angstroms and Degrees)  !
 --------------------------                            --------------------------
 ! Name  Definition              Value          Derivative Info.                !
 --------------------------------------------------------------------------------
 ! R1    R(1,2)                  1.07           estimate D2E/DX2                !
 ! R2    R(1,3)                  1.07           estimate D2E/DX2                !
 ! R3    R(1,4)                  1.07           estimate D2E/DX2                !
 ! R4    R(1,5)                  1.54           estimate D2E/DX2                !
 ! R5    R(1,14)                 3.6175         estimate D2E/DX2                !
 ! R6    R(4,22)                 1.4861         estimate D2E/DX2                !
 ! R7    R(5,6)                  1.07           estimate D2E/DX2                !
 ! R8    R(5,7)                  1.54           estimate D2E/DX2                !
 ! R9    R(5,14)                 2.8            estimate D2E/DX2                !
 ! R10   R(5,22)                 1.9            estimate D2E/DX2                !
 ! R11   R(6,14)                 3.3139         estimate D2E/DX2                !
 ! R12   R(6,22)                 1.8438         estimate D2E/DX2                !
 ! R13   R(7,8)                  1.07           estimate D2E/DX2                !
 ! R14   R(7,9)                  1.07           estimate D2E/DX2                !
 ! R15   R(7,10)                 1.54           estimate D2E/DX2                !
 ! R16   R(7,14)                 3.6175         estimate D2E/DX2                !
 ! R17   R(8,22)                 1.4861         estimate D2E/DX2                !
 ! R18   R(10,11)                1.07           estimate D2E/DX2                !
 ! R19   R(10,12)                1.07           estimate D2E/DX2                !
 ! R20   R(10,13)                1.07           estimate D2E/DX2                !
 ! R21   R(11,14)                3.0516         estimate D2E/DX2                !
 ! R22   R(15,16)                1.07           estimate D2E/DX2                !
 ! R23   R(15,17)                1.07           estimate D2E/DX2                !
 ! R24   R(15,18)                1.54           estimate D2E/DX2                !
 ! R25   R(15,22)                1.43           estimate D2E/DX2                !
 ! R26   R(18,19)                1.07           estimate D2E/DX2                !
 ! R27   R(18,20)                1.07           estimate D2E/DX2                !
 ! R28   R(18,21)                1.07           estimate D2E/DX2                !
 ! A1    A(2,1,3)              109.4712         estimate D2E/DX2                !
 ! A2    A(2,1,4)              109.4712         estimate D2E/DX2                !
 ! A3    A(2,1,5)              109.4712         estimate D2E/DX2                !
 ! A4    A(2,1,14)              83.3328         estimate D2E/DX2                !
 ! A5    A(3,1,4)              109.4712         estimate D2E/DX2                !
 ! A6    A(3,1,5)              109.4713         estimate D2E/DX2                !
 ! A7    A(3,1,14)              83.3327         estimate D2E/DX2                !
 ! A8    A(4,1,5)              109.4712         estimate D2E/DX2                !
 ! A9    A(4,1,14)             156.3366         estimate D2E/DX2                !
 ! A10   A(1,5,6)              109.4712         estimate D2E/DX2                !
 ! A11   A(1,5,7)              109.4712         estimate D2E/DX2                !
 ! A12   A(1,5,22)              70.5288         estimate D2E/DX2                !
 ! A13   A(6,5,7)              109.4713         estimate D2E/DX2                !
 ! A14   A(6,5,22)              70.5288         estimate D2E/DX2                !
 ! A15   A(7,5,22)              70.5288         estimate D2E/DX2                !
 ! A16   A(5,7,8)              109.4712         estimate D2E/DX2                !
 ! A17   A(5,7,9)              109.4712         estimate D2E/DX2                !
 ! A18   A(5,7,10)             109.4712         estimate D2E/DX2                !
 ! A19   A(8,7,9)              109.4712         estimate D2E/DX2                !
 ! A20   A(8,7,10)             109.4713         estimate D2E/DX2                !
 ! A21   A(8,7,14)             156.3366         estimate D2E/DX2                !
 ! A22   A(9,7,10)             109.4712         estimate D2E/DX2                !
 ! A23   A(9,7,14)              83.3328         estimate D2E/DX2                !
 ! A24   A(10,7,14)             83.3327         estimate D2E/DX2                !
 ! A25   A(7,10,11)            109.4712         estimate D2E/DX2                !
 ! A26   A(7,10,12)            109.4712         estimate D2E/DX2                !
 ! A27   A(7,10,13)            109.4712         estimate D2E/DX2                !
 ! A28   A(11,10,12)           109.4713         estimate D2E/DX2                !
 ! A29   A(11,10,13)           109.4712         estimate D2E/DX2                !
 ! A30   A(12,10,13)           109.4712         estimate D2E/DX2                !
 ! A31   A(10,11,14)           124.5877         estimate D2E/DX2                !
 ! A32   A(1,14,6)              35.7709         estimate D2E/DX2                !
 ! A33   A(1,14,7)              40.6799         estimate D2E/DX2                !
 ! A34   A(1,14,11)             76.5379         estimate D2E/DX2                !
 ! A35   A(5,14,11)             55.4645         estimate D2E/DX2                !
 ! A36   A(6,14,7)              35.7709         estimate D2E/DX2                !
 ! A37   A(6,14,11)             57.3042         estimate D2E/DX2                !
 ! A38   A(7,14,11)             36.3439         estimate D2E/DX2                !
 ! A39   A(16,15,17)           109.4713         estimate D2E/DX2                !
 ! A40   A(16,15,18)           109.4712         estimate D2E/DX2                !
 ! A41   A(16,15,22)           109.4712         estimate D2E/DX2                !
 ! A42   A(17,15,18)           109.4712         estimate D2E/DX2                !
 ! A43   A(17,15,22)           109.4712         estimate D2E/DX2                !
 ! A44   A(18,15,22)           109.4712         estimate D2E/DX2                !
 ! A45   A(15,18,19)           109.4712         estimate D2E/DX2                !
 ! A46   A(15,18,20)           109.4712         estimate D2E/DX2                !
 ! A47   A(15,18,21)           109.4712         estimate D2E/DX2                !
 ! A48   A(19,18,20)           109.4713         estimate D2E/DX2                !
 ! A49   A(19,18,21)           109.4712         estimate D2E/DX2                !
 ! A50   A(20,18,21)           109.4712         estimate D2E/DX2                !
 ! A51   A(5,22,15)            116.1497         estimate D2E/DX2                !
 ! A52   L(14,5,22,11,-1)      180.0            estimate D2E/DX2                !
 ! A53   L(14,5,22,11,-2)      180.0            estimate D2E/DX2                !
 ! D1    D(2,1,5,6)            179.9999         estimate D2E/DX2                !
 ! D2    D(2,1,5,7)             59.9999         estimate D2E/DX2                !
 ! D3    D(2,1,5,22)           119.9999         estimate D2E/DX2                !
 ! D4    D(3,1,5,6)            -60.0001         estimate D2E/DX2                !
 ! D5    D(3,1,5,7)            179.9999         estimate D2E/DX2                !
 ! D6    D(3,1,5,22)          -120.0001         estimate D2E/DX2                !
 ! D7    D(4,1,5,6)             59.9999         estimate D2E/DX2                !
 ! D8    D(4,1,5,7)            -60.0001         estimate D2E/DX2                !
 ! D9    D(4,1,5,22)            -0.0001         estimate D2E/DX2                !
 ! D10   D(2,1,14,6)           151.5165         estimate D2E/DX2                !
 ! D11   D(2,1,14,7)            92.4835         estimate D2E/DX2                !
 ! D12   D(2,1,14,11)           99.6827         estimate D2E/DX2                !
 ! D13   D(3,1,14,6)           -97.9013         estimate D2E/DX2                !
 ! D14   D(3,1,14,7)          -156.9343         estimate D2E/DX2                !
 ! D15   D(3,1,14,11)         -149.7351         estimate D2E/DX2                !
 ! D16   D(4,1,14,6)            26.8074         estimate D2E/DX2                !
 ! D17   D(4,1,14,7)           -32.2256         estimate D2E/DX2                !
 ! D18   D(4,1,14,11)          -25.0264         estimate D2E/DX2                !
 ! D19   D(1,5,7,8)             60.0001         estimate D2E/DX2                !
 ! D20   D(1,5,7,9)            -59.9999         estimate D2E/DX2                !
 ! D21   D(1,5,7,10)          -179.9999         estimate D2E/DX2                !
 ! D22   D(6,5,7,8)            -59.9999         estimate D2E/DX2                !
 ! D23   D(6,5,7,9)           -179.9999         estimate D2E/DX2                !
 ! D24   D(6,5,7,10)            60.0001         estimate D2E/DX2                !
 ! D25   D(22,5,7,8)             0.0001         estimate D2E/DX2                !
 ! D26   D(22,5,7,9)          -119.9999         estimate D2E/DX2                !
 ! D27   D(22,5,7,10)          120.0001         estimate D2E/DX2                !
 ! D28   D(11,14,22,15)        -97.0071         estimate D2E/DX2                !
 ! D29   D(1,5,22,15)          112.9544         estimate D2E/DX2                !
 ! D30   D(6,5,22,15)           -7.0456         estimate D2E/DX2                !
 ! D31   D(7,5,22,15)         -127.0456         estimate D2E/DX2                !
 ! D32   D(5,7,10,11)           59.889          estimate D2E/DX2                !
 ! D33   D(5,7,10,12)          179.889          estimate D2E/DX2                !
 ! D34   D(5,7,10,13)          -60.111          estimate D2E/DX2                !
 ! D35   D(8,7,10,11)          179.889          estimate D2E/DX2                !
 ! D36   D(8,7,10,12)          -60.111          estimate D2E/DX2                !
 ! D37   D(8,7,10,13)           59.889          estimate D2E/DX2                !
 ! D38   D(9,7,10,11)          -60.111          estimate D2E/DX2                !
 ! D39   D(9,7,10,12)           59.889          estimate D2E/DX2                !
 ! D40   D(9,7,10,13)          179.889          estimate D2E/DX2                !
 ! D41   D(14,7,10,11)          20.3737         estimate D2E/DX2                !
 ! D42   D(14,7,10,12)         140.3737         estimate D2E/DX2                !
 ! D43   D(14,7,10,13)         -99.6263         estimate D2E/DX2                !
 ! D44   D(8,7,14,1)            32.2254         estimate D2E/DX2                !
 ! D45   D(8,7,14,6)           -26.8075         estimate D2E/DX2                !
 ! D46   D(8,7,14,11)         -135.9068         estimate D2E/DX2                !
 ! D47   D(9,7,14,1)           -92.4835         estimate D2E/DX2                !
 ! D48   D(9,7,14,6)          -151.5165         estimate D2E/DX2                !
 ! D49   D(9,7,14,11)           99.3842         estimate D2E/DX2                !
 ! D50   D(10,7,14,1)          156.9342         estimate D2E/DX2                !
 ! D51   D(10,7,14,6)           97.9012         estimate D2E/DX2                !
 ! D52   D(10,7,14,11)         -11.1981         estimate D2E/DX2                !
 ! D53   D(7,10,11,14)         -29.862          estimate D2E/DX2                !
 ! D54   D(12,10,11,14)       -149.862          estimate D2E/DX2                !
 ! D55   D(13,10,11,14)         90.138          estimate D2E/DX2                !
 ! D56   D(10,11,14,1)          11.7844         estimate D2E/DX2                !
 ! D57   D(10,11,14,5)          -0.1101         estimate D2E/DX2                !
 ! D58   D(10,11,14,6)         -21.3164         estimate D2E/DX2                !
 ! D59   D(10,11,14,7)          19.7072         estimate D2E/DX2                !
 ! D60   D(16,15,18,19)        -60.1111         estimate D2E/DX2                !
 ! D61   D(16,15,18,20)         59.8889         estimate D2E/DX2                !
 ! D62   D(16,15,18,21)        179.8889         estimate D2E/DX2                !
 ! D63   D(17,15,18,19)        179.8889         estimate D2E/DX2                !
 ! D64   D(17,15,18,20)        -60.1111         estimate D2E/DX2                !
 ! D65   D(17,15,18,21)         59.8889         estimate D2E/DX2                !
 ! D66   D(22,15,18,19)         59.8889         estimate D2E/DX2                !
 ! D67   D(22,15,18,20)        179.8889         estimate D2E/DX2                !
 ! D68   D(22,15,18,21)        -60.1111         estimate D2E/DX2                !
 ! D69   D(16,15,22,5)         -41.9844         estimate D2E/DX2                !
 ! D70   D(17,15,22,5)          78.0156         estimate D2E/DX2                !
 ! D71   D(18,15,22,5)        -161.9844         estimate D2E/DX2                !
 --------------------------------------------------------------------------------
 Trust Radius=3.00D-01 FncErr=1.00D-07 GrdErr=1.00D-07
 Number of steps in this run= 132 maximum allowed number of steps= 132.
 GradGradGradGradGradGradGradGradGradGradGradGradGradGradGradGradGradGrad

                          Input orientation:                          
 ---------------------------------------------------------------------
 Center     Atomic      Atomic             Coordinates (Angstroms)
 Number     Number       Type             X           Y           Z
 ---------------------------------------------------------------------
      1          6           0       -3.883257    0.357150    0.000000
      2          1           0       -3.526603   -0.651660    0.000000
      3          1           0       -3.526584    0.861548    0.873651
      4          1           0       -4.953257    0.357163    0.000000
      5          6           0       -3.369915    1.083106   -1.257405
      6          1           0       -3.726571    2.091916   -1.257406
      7          6           0       -3.883255    0.357147   -2.514810
      8          1           0       -4.953255    0.357160   -2.514811
      9          1           0       -3.526600   -0.651663   -2.514808
     10          6           0       -3.369911    1.083103   -3.772215
     11          1           0       -2.299913    1.084783   -3.771236
     12          1           0       -3.724986    0.577575   -4.645865
     13          1           0       -3.728161    2.091347   -3.773194
     14         35           0       -0.569915    1.083076   -1.257404
     15          6           0       -5.900129    2.357073   -1.099958
     16          1           0       -5.384194    2.920025   -0.350428
     17          1           0       -5.869280    2.887479   -2.028731
     18          6           0       -7.365783    2.155398   -0.672424
     19          1           0       -7.396682    1.623296    0.255376
     20          1           0       -7.836798    3.108665   -0.552734
     21          1           0       -7.882212    1.594108   -1.422860
     22          8           0       -5.269915    1.083127   -1.257407
 ---------------------------------------------------------------------
                    Distance matrix (angstroms):
                    1          2          3          4          5
     1  C    0.000000
     2  H    1.070000   0.000000
     3  H    1.070000   1.747302   0.000000
     4  H    1.070000   1.747303   1.747303   0.000000
     5  C    1.540000   2.148263   2.148263   2.148263   0.000000
     6  H    2.148263   3.024610   2.468847   2.468845   1.070000
     7  C    2.514809   2.732976   3.444314   2.732978   1.540000
     8  H    2.732977   3.062242   3.710993   2.514810   2.148263
     9  H    2.732977   2.514807   3.710992   3.062244   2.148263
    10  C    3.875581   4.154943   4.653783   4.154945   2.514809
    11  H    4.154353   4.329228   4.809317   4.668178   2.732078
    12  H    4.653782   4.809826   5.530376   4.810539   3.444313
    13  H    4.155537   4.669229   4.811051   4.329578   2.733877
    14  Br   3.617495   3.651353   3.651351   4.617543   2.800000
    15  C    3.045878   3.986980   3.430079   2.471055   2.837211
    16  H    2.990642   4.041086   3.030909   2.622359   2.873012
    17  H    3.802972   4.704188   4.244578   3.370065   3.177661
    18  C    3.976661   4.803231   4.336340   3.083194   4.178394
    19  H    3.743327   4.496460   3.992516   2.763808   4.335339
    20  H    4.848385   5.746594   5.065773   4.023815   4.955048
    21  H    4.421112   5.102875   4.978162   3.483294   4.544153
    22  O    2.007718   2.762190   2.762192   1.486057   1.900000
                    6          7          8          9         10
     6  H    0.000000
     7  C    2.148263   0.000000
     8  H    2.468846   1.070000   0.000000
     9  H    3.024611   1.070000   1.747303   0.000000
    10  C    2.732978   1.540000   2.148263   2.148263   0.000000
    11  H    3.060884   2.148263   3.024610   2.469537   1.070000
    12  H    3.711452   2.148263   2.469538   2.468154   1.070000
    13  H    2.515789   2.148263   2.468155   3.024610   1.070000
    14  Br   3.313945   3.617494   4.617542   3.651352   3.763543
    15  C    2.195326   3.173214   2.626410   4.085086   3.894349
    16  H    2.063029   3.675011   3.382091   4.570793   4.374956
    17  H    2.412274   3.253174   2.734573   4.271995   3.541518
    18  C    3.686475   4.330830   3.528221   5.100323   5.169672
    19  H    3.997228   4.649864   3.904788   5.275120   5.720855
    20  H    4.292355   5.201067   4.442449   6.047116   5.866945
    21  H    4.188621   4.325978   3.361724   5.020676   5.112871
    22  O    1.843791   2.007719   1.486057   2.762191   3.151868
                   11         12         13         14         15
    11  H    0.000000
    12  H    1.747303   0.000000
    13  H    1.747303   1.747303   0.000000
    14  Br   3.051598   4.657432   4.161770   0.000000
    15  C    4.660043   4.524523   3.454598   5.482613   0.000000
    16  H    4.958107   5.166315   3.891591   5.232042   1.070000
    17  H    4.361928   4.096710   2.874260   5.651025   1.070000
    18  C    6.034227   5.615439   4.780290   6.904774   1.540000
    19  H    6.517719   6.212652   5.468684   7.013208   2.148263
    20  H    6.716543   6.329860   5.318571   7.576752   2.148263
    21  H    6.077528   5.357576   4.798693   7.332000   2.148263
    22  O    3.891048   3.758195   3.118125   4.700000   1.430000
                   16         17         18         19         20
    16  H    0.000000
    17  H    1.747303   0.000000
    18  C    2.148263   2.148263   0.000000
    19  H    2.469538   3.024609   1.070000   0.000000
    20  H    2.468154   2.469538   1.070000   1.747303   0.000000
    21  H    3.024610   2.468154   1.070000   1.747303   1.747303
    22  O    2.051796   2.051796   2.425826   2.665227   3.344886
                   21         22
    21  H    0.000000
    22  O    2.666941   0.000000
 Stoichiometry    C6H14BrO(1-)
 Framework group  C1[X(C6H14BrO)]
 Deg. of freedom    60
 Full point group                 C1      NOp   1
 Largest Abelian subgroup         C1      NOp   1
 Largest concise Abelian subgroup C1      NOp   1
                         Standard orientation:                         
 ---------------------------------------------------------------------
 Center     Atomic      Atomic             Coordinates (Angstroms)
 Number     Number       Type             X           Y           Z
 ---------------------------------------------------------------------
      1          6           0        0.656911   -1.311493    0.997430
      2          1           0        0.174345   -1.268614    1.951470
      3          1           0        0.417585   -2.237644    0.517984
      4          1           0        1.716363   -1.241917    1.130169
      5          6           0        0.171075   -0.140381    0.123325
      6          1           0        0.653642   -0.183259   -0.830714
      7          6           0        0.515523    1.192583    0.813372
      8          1           0        1.574975    1.262160    0.946112
      9          1           0        0.032957    1.235460    1.767412
     10          6           0        0.029685    2.363696   -0.060732
     11          1           0       -1.029493    2.293034   -0.195075
     12          1           0        0.267284    3.289814    0.419634
     13          1           0        0.513702    2.321933   -1.014085
     14         35           0       -2.601323   -0.322451   -0.224034
     15          6           0        2.848642   -0.216065   -0.811914
     16          1           0        2.452157   -1.032815   -1.378147
     17          1           0        2.833929    0.671999   -1.408593
     18          6           0        4.298008   -0.533262   -0.399211
     19          1           0        4.312497   -1.420244    0.199082
     20          1           0        4.893410   -0.684246   -1.275339
     21          1           0        4.695143    0.284313    0.165373
     22          8           0        2.052345   -0.016833    0.359033
 ---------------------------------------------------------------------
 Rotational constants (GHZ):      2.4468366      0.4780515      0.4363014
 Standard basis: 3-21G (6D, 7F)
 There are   114 symmetry adapted basis functions of A   symmetry.
 Integral buffers will be    262144 words long.
 Raffenetti 1 integral format.
 Two-electron integral symmetry is turned on.
   114 basis functions,   204 primitive gaussians,   114 cartesian basis functions
    47 alpha electrons       47 beta electrons
       nuclear repulsion energy       593.8175530650 Hartrees.
 NAtoms=   22 NActive=   22 NUniq=   22 SFac= 7.50D-01 NAtFMM=   80 NAOKFM=F Big=F
 One-electron integrals computed using PRISM.
 NBasis=   114 RedAO= T  NBF=   114
 NBsUse=   114 1.00D-06 NBFU=   114
 Harris functional with IExCor=  205 diagonalized for initial guess.
 ExpMin= 1.65D-01 ExpMax= 6.10D+03 ExpMxC= 6.10D+03 IAcc=1 IRadAn=         1 AccDes= 0.00D+00
 HarFok:  IExCor=  205 AccDes= 0.00D+00 IRadAn=         1 IDoV= 1
 ScaDFX=  1.000000  1.000000  1.000000  1.000000
 FoFCou: FMM=F IPFlag=           0 FMFlag=      100000 FMFlg1=           0
         NFxFlg=           0 DoJE=T BraDBF=F KetDBF=T FulRan=T
         Omega=  0.000000  0.000000  1.000000  0.000000  0.000000 ICntrl=     500 IOpCl=  0
         NMat0=    1 NMatS0=    1 NMatT0=    0 NMatD0=    1 NMtDS0=    0 NMtDT0=    0
         I1Cent=           4 NGrid=           0.
 Petite list used in FoFCou.
 Initial guess orbital symmetries:
       Occupied  (A) (A) (A) (A) (A) (A) (A) (A) (A) (A) (A) (A)
                 (A) (A) (A) (A) (A) (A) (A) (A) (A) (A) (A) (A)
                 (A) (A) (A) (A) (A) (A) (A) (A) (A) (A) (A) (A)
                 (A) (A) (A) (A) (A) (A) (A) (A) (A) (A) (A)
       Virtual   (A) (A) (A) (A) (A) (A) (A) (A) (A) (A) (A) (A)
                 (A) (A) (A) (A) (A) (A) (A) (A) (A) (A) (A) (A)
                 (A) (A) (A) (A) (A) (A) (A) (A) (A) (A) (A) (A)
                 (A) (A) (A) (A) (A) (A) (A) (A) (A) (A) (A) (A)
                 (A) (A) (A) (A) (A) (A) (A) (A) (A) (A) (A) (A)
                 (A) (A) (A) (A) (A) (A) (A)
 The electronic state of the initial guess is 1-A.
 Requested convergence on RMS density matrix=1.00D-08 within 128 cycles.
 Requested convergence on MAX density matrix=1.00D-06.
 Requested convergence on             energy=1.00D-06.
 No special actions if energy rises.
 Keep R1 ints in memory in canonical form, NReq=22365846.
 SCF Done:  E(RHF) =  -2868.33329776     A.U. after   14 cycles
             Convg  =    0.6420D-08             -V/T =  1.9967

 **********************************************************************

            Population analysis using the SCF density.

 **********************************************************************

 Orbital symmetries:
       Occupied  (A) (A) (A) (A) (A) (A) (A) (A) (A) (A) (A) (A)
                 (A) (A) (A) (A) (A) (A) (A) (A) (A) (A) (A) (A)
                 (A) (A) (A) (A) (A) (A) (A) (A) (A) (A) (A) (A)
                 (A) (A) (A) (A) (A) (A) (A) (A) (A) (A) (A)
       Virtual   (A) (A) (A) (A) (A) (A) (A) (A) (A) (A) (A) (A)
                 (A) (A) (A) (A) (A) (A) (A) (A) (A) (A) (A) (A)
                 (A) (A) (A) (A) (A) (A) (A) (A) (A) (A) (A) (A)
                 (A) (A) (A) (A) (A) (A) (A) (A) (A) (A) (A) (A)
                 (A) (A) (A) (A) (A) (A) (A) (A) (A) (A) (A) (A)
                 (A) (A) (A) (A) (A) (A) (A)
 The electronic state is 1-A.
 Alpha  occ. eigenvalues -- -486.47472 -64.48773 -57.67368 -57.67319 -57.67315
 Alpha  occ. eigenvalues --  -20.21138 -11.10031 -11.06634 -11.03495 -10.99905
 Alpha  occ. eigenvalues --  -10.99274 -10.98310  -9.48012  -7.05637  -7.05398
 Alpha  occ. eigenvalues --   -7.05389  -2.78467  -2.78370  -2.78359  -2.78074
 Alpha  occ. eigenvalues --   -2.78074  -1.15507  -0.92963  -0.87261  -0.83671
 Alpha  occ. eigenvalues --   -0.72960  -0.71077  -0.69207  -0.64323  -0.52947
 Alpha  occ. eigenvalues --   -0.50575  -0.47387  -0.45341  -0.44386  -0.43780
 Alpha  occ. eigenvalues --   -0.40898  -0.39641  -0.37892  -0.37105  -0.33518
 Alpha  occ. eigenvalues --   -0.31120  -0.26953  -0.22527  -0.16426  -0.14815
 Alpha  occ. eigenvalues --   -0.14730  -0.13853
 Alpha virt. eigenvalues --    0.27299   0.38780   0.41123   0.43078   0.45036
 Alpha virt. eigenvalues --    0.45996   0.46268   0.47667   0.48772   0.50493
 Alpha virt. eigenvalues --    0.50829   0.52454   0.53899   0.54570   0.55836
 Alpha virt. eigenvalues --    0.58318   0.58860   0.60745   0.62901   0.64062
 Alpha virt. eigenvalues --    1.00661   1.01674   1.02066   1.03903   1.05089
 Alpha virt. eigenvalues --    1.07551   1.08814   1.10596   1.12562   1.15056
 Alpha virt. eigenvalues --    1.16288   1.18218   1.19632   1.21034   1.22505
 Alpha virt. eigenvalues --    1.24565   1.27892   1.31507   1.37057   1.39640
 Alpha virt. eigenvalues --    1.41183   1.47108   1.48486   1.48821   1.50590
 Alpha virt. eigenvalues --    1.51945   1.53394   1.54779   1.55868   1.56856
 Alpha virt. eigenvalues --    1.57437   1.58833   1.61533   1.63475   1.64425
 Alpha virt. eigenvalues --    1.69640   2.04450   2.07295   2.25518   2.34655
 Alpha virt. eigenvalues --    2.41334   2.46465   2.47781   2.63869   2.76669
 Alpha virt. eigenvalues --    3.74074  24.36379
          Condensed to atoms (all electrons):
              1          2          3          4          5          6
     1  C    5.640948   0.347701   0.353765   0.327244   0.271420  -0.050247
     2  H    0.347701   0.569887  -0.017029  -0.025453  -0.058774   0.002948
     3  H    0.353765  -0.017029   0.568071  -0.020765  -0.055201  -0.002712
     4  H    0.327244  -0.025453  -0.020765   0.434216  -0.041396   0.003618
     5  C    0.271420  -0.058774  -0.055201  -0.041396   5.425175   0.360654
     6  H   -0.050247   0.002948  -0.002712   0.003618   0.360654   0.487769
     7  C   -0.097485  -0.001046   0.003986   0.003250   0.263297  -0.055536
     8  H    0.005544  -0.001099  -0.000169   0.006324  -0.039581   0.003538
     9  H   -0.000433   0.001864   0.000000  -0.000999  -0.060425   0.003130
    10  C    0.004173   0.000016  -0.000066  -0.000117  -0.096763  -0.001329
    11  H   -0.000013   0.000011  -0.000003  -0.000003   0.000639   0.000288
    12  H   -0.000083  -0.000001   0.000001   0.000006   0.004648  -0.000059
    13  H   -0.000024  -0.000001   0.000002  -0.000012  -0.004364   0.002322
    14  Br  -0.008236   0.001574   0.000964   0.000081   0.075386  -0.002907
    15  C    0.009469   0.000023  -0.000554  -0.010090  -0.022122  -0.007534
    16  H    0.003115  -0.000210  -0.000259   0.002690  -0.001563  -0.000622
    17  H   -0.001268   0.000020   0.000062   0.001000   0.001154  -0.001244
    18  C    0.000400   0.000011   0.000000  -0.003649   0.001485   0.000410
    19  H   -0.000483   0.000007   0.000034   0.001186  -0.000032  -0.000021
    20  H   -0.000017   0.000000  -0.000001   0.000207  -0.000028   0.000000
    21  H    0.000070  -0.000002   0.000000   0.000090  -0.000042  -0.000007
    22  O   -0.209030   0.008496   0.006881   0.006087  -0.009957  -0.009951
              7          8          9         10         11         12
     1  C   -0.097485   0.005544  -0.000433   0.004173  -0.000013  -0.000083
     2  H   -0.001046  -0.001099   0.001864   0.000016   0.000011  -0.000001
     3  H    0.003986  -0.000169   0.000000  -0.000066  -0.000003   0.000001
     4  H    0.003250   0.006324  -0.000999  -0.000117  -0.000003   0.000006
     5  C    0.263297  -0.039581  -0.060425  -0.096763   0.000639   0.004648
     6  H   -0.055536   0.003538   0.003130  -0.001329   0.000288  -0.000059
     7  C    5.729481   0.330715   0.344314   0.228326  -0.043489  -0.044281
     8  H    0.330715   0.427348  -0.026746  -0.032731   0.002219  -0.000345
     9  H    0.344314  -0.026746   0.590848  -0.032027  -0.003728  -0.002860
    10  C    0.228326  -0.032731  -0.032027   5.418405   0.365948   0.370470
    11  H   -0.043489   0.002219  -0.003728   0.365948   0.480791  -0.023978
    12  H   -0.044281  -0.000345  -0.002860   0.370470  -0.023978   0.577995
    13  H   -0.051934  -0.002383   0.004255   0.377495  -0.028531  -0.031237
    14  Br  -0.008631   0.000011   0.001935  -0.006545   0.013341   0.000097
    15  C    0.011341  -0.002626  -0.000121  -0.000802   0.000020   0.000007
    16  H   -0.001240   0.001571   0.000017   0.000050  -0.000006   0.000000
    17  H    0.002381  -0.001021  -0.000093   0.000283   0.000017   0.000010
    18  C   -0.000256  -0.001491   0.000014   0.000006   0.000000  -0.000001
    19  H    0.000028  -0.000045  -0.000001   0.000000   0.000000   0.000000
    20  H    0.000004   0.000056   0.000000   0.000000   0.000000   0.000000
    21  H   -0.000192   0.000490   0.000001   0.000004   0.000000   0.000000
    22  O   -0.191225   0.005613   0.009037   0.005420  -0.000134  -0.000115
             13         14         15         16         17         18
     1  C   -0.000024  -0.008236   0.009469   0.003115  -0.001268   0.000400
     2  H   -0.000001   0.001574   0.000023  -0.000210   0.000020   0.000011
     3  H    0.000002   0.000964  -0.000554  -0.000259   0.000062   0.000000
     4  H   -0.000012   0.000081  -0.010090   0.002690   0.001000  -0.003649
     5  C   -0.004364   0.075386  -0.022122  -0.001563   0.001154   0.001485
     6  H    0.002322  -0.002907  -0.007534  -0.000622  -0.001244   0.000410
     7  C   -0.051934  -0.008631   0.011341  -0.001240   0.002381  -0.000256
     8  H   -0.002383   0.000011  -0.002626   0.001571  -0.001021  -0.001491
     9  H    0.004255   0.001935  -0.000121   0.000017  -0.000093   0.000014
    10  C    0.377495  -0.006545  -0.000802   0.000050   0.000283   0.000006
    11  H   -0.028531   0.013341   0.000020  -0.000006   0.000017   0.000000
    12  H   -0.031237   0.000097   0.000007   0.000000   0.000010  -0.000001
    13  H    0.568623   0.000218   0.000184   0.000055  -0.000219   0.000011
    14  Br   0.000218  35.704063   0.000014  -0.000032  -0.000001   0.000000
    15  C    0.000184   0.000014   5.041067   0.344296   0.359377   0.236795
    16  H    0.000055  -0.000032   0.344296   0.671505  -0.059938  -0.056050
    17  H   -0.000219  -0.000001   0.359377  -0.059938   0.656061  -0.061407
    18  C    0.000011   0.000000   0.236795  -0.056050  -0.061407   5.456801
    19  H    0.000000   0.000000  -0.040556  -0.004595   0.004172   0.375952
    20  H   -0.000001   0.000000  -0.041967   0.001918   0.002558   0.328666
    21  H    0.000001   0.000000  -0.041492   0.004648  -0.005163   0.373759
    22  O    0.001793   0.000364   0.235320  -0.045990  -0.042542  -0.044469
             19         20         21         22
     1  C   -0.000483  -0.000017   0.000070  -0.209030
     2  H    0.000007   0.000000  -0.000002   0.008496
     3  H    0.000034  -0.000001   0.000000   0.006881
     4  H    0.001186   0.000207   0.000090   0.006087
     5  C   -0.000032  -0.000028  -0.000042  -0.009957
     6  H   -0.000021   0.000000  -0.000007  -0.009951
     7  C    0.000028   0.000004  -0.000192  -0.191225
     8  H   -0.000045   0.000056   0.000490   0.005613
     9  H   -0.000001   0.000000   0.000001   0.009037
    10  C    0.000000   0.000000   0.000004   0.005420
    11  H    0.000000   0.000000   0.000000  -0.000134
    12  H    0.000000   0.000000   0.000000  -0.000115
    13  H    0.000000  -0.000001   0.000001   0.001793
    14  Br   0.000000   0.000000   0.000000   0.000364
    15  C   -0.040556  -0.041967  -0.041492   0.235320
    16  H   -0.004595   0.001918   0.004648  -0.045990
    17  H    0.004172   0.002558  -0.005163  -0.042542
    18  C    0.375952   0.328666   0.373759  -0.044469
    19  H    0.526689  -0.027924  -0.028115   0.001484
    20  H   -0.027924   0.611154  -0.028369   0.002085
    21  H   -0.028115  -0.028369   0.530314   0.001863
    22  O    0.001484   0.002085   0.001863   8.975480
 Mulliken atomic charges:
              1
     1  C   -0.596528
     2  H    0.171059
     3  H    0.162993
     4  H    0.316485
     5  C   -0.013612
     6  H    0.267492
     7  C   -0.421807
     8  H    0.324807
     9  H    0.172020
    10  C   -0.600213
    11  H    0.236610
    12  H    0.149725
    13  H    0.163748
    14  Br  -0.771695
    15  C   -0.070050
    16  H    0.140639
    17  H    0.145802
    18  C   -0.606990
    19  H    0.192218
    20  H    0.151660
    21  H    0.192144
    22  O   -0.706509
 Sum of Mulliken atomic charges =  -1.00000
 Mulliken charges with hydrogens summed into heavy atoms:
              1
     1  C    0.054009
     5  C    0.253880
     7  C    0.075021
    10  C   -0.050130
    14  Br  -0.771695
    15  C    0.216391
    18  C   -0.070967
    22  O   -0.706509
 Sum of Mulliken charges with hydrogens summed into heavy atoms =  -1.00000
 Electronic spatial extent (au):  <R**2>=           2505.3792
 Charge=             -1.0000 electrons
 Dipole moment (field-independent basis, Debye):
    X=              6.0598    Y=              0.6408    Z=             -0.5622  Tot=              6.1195
 Quadrupole moment (field-independent basis, Debye-Ang):
   XX=           -103.6030   YY=            -73.1297   ZZ=            -70.3391
   XY=             -2.8538   XZ=             -3.8586   YZ=              0.3607
 Traceless Quadrupole moment (field-independent basis, Debye-Ang):
   XX=            -21.2458   YY=              9.2275   ZZ=             12.0182
   XY=             -2.8538   XZ=             -3.8586   YZ=              0.3607
 Octapole moment (field-independent basis, Debye-Ang**2):
  XXX=            -38.5047  YYY=            -15.7116  ZZZ=             -5.5405  XYY=            -20.5481
  XXY=              8.0802  XXZ=              2.5058  XZZ=            -22.2198  YZZ=             -2.7505
  YYZ=             -1.7961  XYZ=              0.3533
 Hexadecapole moment (field-independent basis, Debye-Ang**3):
 XXXX=          -2634.1280 YYYY=           -581.6936 ZZZZ=           -242.1312 XXXY=             23.9494
 XXXZ=             18.0921 YYYX=             23.7144 YYYZ=              8.6542 ZZZX=             19.2276
 ZZZY=              2.6538 XXYY=           -481.8370 XXZZ=           -433.8016 YYZZ=           -135.6700
 XXYZ=             -2.8516 YYXZ=              9.4829 ZZXY=              8.5102
 N-N= 5.938175530650D+02 E-N=-8.066830176948D+03  KE= 2.877801982583D+03
 Calling FoFJK, ICntrl=      2127 FMM=F ISym2X=0 I1Cent= 0 IOpClX= 0 NMat=1 NMatS=1 NMatT=0.
 ***** Axes restored to original set *****
 -------------------------------------------------------------------
 Center     Atomic                   Forces (Hartrees/Bohr)
 Number     Number              X              Y              Z
 -------------------------------------------------------------------
      1        6           0.085806320   -0.034914047    0.069821908
      2        1           0.013496487   -0.010693572    0.005340231
      3        1           0.012169944    0.000103793    0.014224761
      4        1           0.017596382   -0.015860268    0.017641194
      5        6          -0.132862452   -0.026907672    0.004933600
      6        1           0.056617604    0.020007999   -0.001575655
      7        6           0.087628922   -0.028748181   -0.078437622
      8        1           0.017262969   -0.016073785   -0.015547515
      9        1           0.012881427   -0.011331830   -0.001793842
     10        6           0.005208058   -0.013294429    0.005491393
     11        1           0.009431787    0.003309260   -0.002295563
     12        1          -0.004224059   -0.002966513   -0.012785503
     13        1          -0.003913109    0.011271652   -0.002340108
     14       35          -0.017943155    0.000669348    0.000397475
     15        6          -0.010187157   -0.031955900    0.000085329
     16        1           0.003423849    0.014263116    0.010379980
     17        1          -0.001128571    0.014775461   -0.009634210
     18        6           0.013035169    0.008758538   -0.004258461
     19        1          -0.000847794   -0.005420402    0.007773443
     20        1          -0.010287326    0.009777763    0.002635407
     21        1          -0.004385806   -0.006118142   -0.005915435
     22        8          -0.148779490    0.121347811   -0.004140809
 -------------------------------------------------------------------
 Cartesian Forces:  Max     0.148779490 RMS     0.037550036

 GradGradGradGradGradGradGradGradGradGradGradGradGradGradGradGradGradGrad
 Berny optimization.
 Internal  Forces:  Max     0.094225605 RMS     0.019296925
 Search for a local minimum.
 Step number   1 out of a maximum of  132
 All quantities printed in internal units (Hartrees-Bohrs-Radians)
 Mixed Optimization -- RFO/linear search
 Second derivative matrix not updated -- first step.
     Eigenvalues ---    0.00230   0.00237   0.00414   0.00438   0.00560
     Eigenvalues ---    0.01003   0.01295   0.01419   0.01901   0.02147
     Eigenvalues ---    0.02581   0.03215   0.04234   0.04734   0.05027
     Eigenvalues ---    0.05127   0.05139   0.05628   0.05720   0.05720
     Eigenvalues ---    0.05816   0.05885   0.06327   0.07074   0.09161
     Eigenvalues ---    0.10181   0.10962   0.11143   0.11239   0.11564
     Eigenvalues ---    0.12174   0.12515   0.13396   0.13704   0.14747
     Eigenvalues ---    0.16000   0.16000   0.16000   0.16323   0.21363
     Eigenvalues ---    0.22071   0.22206   0.25000   0.26787   0.28519
     Eigenvalues ---    0.29229   0.33666   0.37047   0.37099   0.37230
     Eigenvalues ---    0.37230   0.37230   0.37230   0.37230   0.37230
     Eigenvalues ---    0.37230   0.37230   0.37230   0.37230   0.40989
     Eigenvalues --- 1000.000001000.000001000.000001000.000001000.00000
     Eigenvalues --- 1000.000001000.000001000.000001000.000001000.00000
     Eigenvalues --- 1000.000001000.000001000.000001000.000001000.00000
     Eigenvalues --- 1000.000001000.000001000.000001000.000001000.00000
     Eigenvalues --- 1000.000001000.000001000.000001000.000001000.00000
     Eigenvalues --- 1000.000001000.000001000.000001000.000001000.00000
     Eigenvalues --- 1000.000001000.000001000.000001000.000001000.00000
     Eigenvalues --- 1000.000001000.000001000.000001000.000001000.00000
     Eigenvalues --- 1000.000001000.000001000.000001000.000001000.00000
     Eigenvalues --- 1000.000001000.000001000.000001000.000001000.00000
     Eigenvalues --- 1000.000001000.000001000.000001000.000001000.00000
     Eigenvalues --- 1000.000001000.000001000.000001000.000001000.00000
     Eigenvalues --- 1000.000001000.000001000.000001000.000001000.00000
     Eigenvalues --- 1000.000001000.000001000.000001000.000001000.00000
     Eigenvalues --- 1000.000001000.000001000.000001000.000001000.00000
     Eigenvalues --- 1000.000001000.000001000.000001000.000001000.00000
     Eigenvalues --- 1000.000001000.000001000.000001000.000001000.00000
     Eigenvalues --- 1000.000001000.000001000.000001000.000001000.00000
     Eigenvalues --- 1000.000001000.00000
 RFO step:  Lambda=-1.88558645D-01 EMin= 2.30000000D-03
 Linear search not attempted -- first point.
 Maximum step size (   0.300) exceeded in Quadratic search.
    -- Step size scaled by   0.373
 Iteration  1 RMS(Cart)=  0.04541955 RMS(Int)=  0.00105778
 Iteration  2 RMS(Cart)=  0.00111736 RMS(Int)=  0.00048763
 Iteration  3 RMS(Cart)=  0.00000175 RMS(Int)=  0.00048763
 Iteration  4 RMS(Cart)=  0.00000000 RMS(Int)=  0.00048763
 Variable       Old X    -DE/DX   Delta X   Delta X   Delta X     New X
                                 (Linear)    (Quad)   (Total)
    R1        2.02201   0.01458   0.00000   0.00970   0.00970   2.03171
    R2        2.02201   0.01572   0.00000   0.01046   0.01046   2.03247
    R3        2.02201  -0.00009   0.00000   0.00036   0.00076   2.02276
    R4        2.91018   0.01226   0.00000   0.00531   0.00423   2.91441
    R5        6.83607  -0.02788   0.00000  -0.04080  -0.04052   6.79556
    R6        2.80824   0.08217   0.00000   0.10397   0.10524   2.91348
    R7        2.02201  -0.00659   0.00000  -0.00587  -0.00591   2.01610
    R8        2.91018   0.01150   0.00000   0.00566   0.00433   2.91451
    R9        5.29123   0.02899   0.00000   0.04133   0.04095   5.33218
   R10        3.59048   0.09423   0.00000   0.11840   0.11754   3.70802
   R11        6.26245   0.00853   0.00000   0.00865   0.00840   6.27085
   R12        3.48426   0.03576   0.00000   0.05179   0.05186   3.53612
   R13        2.02201   0.00023   0.00000   0.00032   0.00075   2.02275
   R14        2.02201   0.01498   0.00000   0.00997   0.00997   2.03197
   R15        2.91018   0.00676   0.00000   0.00610   0.00612   2.91630
   R16        6.83607  -0.01624   0.00000  -0.02118  -0.02123   6.81484
   R17        2.80824   0.08208   0.00000   0.10171   0.10315   2.91140
   R18        2.02201   0.00002   0.00000   0.00003   0.00037   2.02238
   R19        2.02201   0.01324   0.00000   0.00881   0.00881   2.03082
   R20        2.02201   0.01193   0.00000   0.00794   0.00794   2.02995
   R21        5.76668  -0.00343   0.00000  -0.00786  -0.00755   5.75913
   R22        2.02201   0.01643   0.00000   0.01093   0.01093   2.03294
   R23        2.02201   0.01565   0.00000   0.01042   0.01042   2.03242
   R24        2.91018   0.00151   0.00000   0.00119   0.00119   2.91137
   R25        2.70231   0.00833   0.00000   0.00519   0.00519   2.70750
   R26        2.02201   0.00946   0.00000   0.00629   0.00629   2.02830
   R27        2.02201   0.01353   0.00000   0.00900   0.00900   2.03101
   R28        2.02201   0.00947   0.00000   0.00630   0.00630   2.02831
    A1        1.91063  -0.00491   0.00000  -0.00529  -0.00531   1.90533
    A2        1.91063   0.01978   0.00000   0.02113   0.02155   1.93219
    A3        1.91063   0.00521   0.00000   0.00947   0.00923   1.91986
    A4        1.45443  -0.00056   0.00000  -0.00125  -0.00118   1.45325
    A5        1.91063   0.02364   0.00000   0.02623   0.02640   1.93704
    A6        1.91063   0.01380   0.00000   0.01620   0.01617   1.92680
    A7        1.45443  -0.00573   0.00000  -0.00680  -0.00642   1.44801
    A8        1.91063  -0.05753   0.00000  -0.06774  -0.06849   1.84215
    A9        2.72859  -0.03616   0.00000  -0.03841  -0.03979   2.68879
   A10        1.91063   0.00835   0.00000   0.01937   0.01816   1.92879
   A11        1.91063   0.05019   0.00000   0.05108   0.04883   1.95946
   A12        1.23096   0.04712   0.00000   0.05933   0.05788   1.28884
   A13        1.91063   0.00426   0.00000   0.01478   0.01356   1.92420
   A14        1.23096  -0.02115   0.00000  -0.02338  -0.02323   1.20773
   A15        1.23096   0.03683   0.00000   0.04928   0.04797   1.27893
   A16        1.91063  -0.03895   0.00000  -0.05119  -0.05154   1.85909
   A17        1.91063   0.00166   0.00000   0.00495   0.00472   1.91535
   A18        1.91063   0.01951   0.00000   0.02039   0.02027   1.93091
   A19        1.91063   0.01172   0.00000   0.01472   0.01477   1.92541
   A20        1.91063   0.01185   0.00000   0.01577   0.01624   1.92687
   A21        2.72859  -0.02156   0.00000  -0.02837  -0.02917   2.69942
   A22        1.91063  -0.00578   0.00000  -0.00463  -0.00467   1.90597
   A23        1.45443  -0.00160   0.00000  -0.00235  -0.00227   1.45216
   A24        1.45443   0.00166   0.00000   0.00181   0.00190   1.45633
   A25        1.91063  -0.00002   0.00000  -0.00021  -0.00015   1.91048
   A26        1.91063   0.00386   0.00000   0.00476   0.00474   1.91537
   A27        1.91063   0.00032   0.00000   0.00051   0.00049   1.91113
   A28        1.91063  -0.00012   0.00000  -0.00012   0.00000   1.91063
   A29        1.91063  -0.00171   0.00000  -0.00189  -0.00205   1.90858
   A30        1.91063  -0.00232   0.00000  -0.00305  -0.00304   1.90759
   A31        2.17447  -0.00364   0.00000  -0.00361  -0.00385   2.17062
   A32        0.62432   0.00453   0.00000   0.00697   0.00646   0.63078
   A33        0.71000   0.01858   0.00000   0.01815   0.01713   0.72713
   A34        1.33584   0.02118   0.00000   0.02125   0.02031   1.35615
   A35        0.96804   0.01094   0.00000   0.01089   0.01054   0.97858
   A36        0.62432   0.00270   0.00000   0.00462   0.00414   0.62846
   A37        1.00015   0.00885   0.00000   0.00974   0.00935   1.00949
   A38        0.63432   0.00260   0.00000   0.00296   0.00303   0.63735
   A39        1.91063  -0.00193   0.00000  -0.00355  -0.00359   1.90705
   A40        1.91063  -0.00340   0.00000  -0.00435  -0.00436   1.90627
   A41        1.91063   0.00366   0.00000   0.00510   0.00510   1.91573
   A42        1.91063  -0.00330   0.00000  -0.00419  -0.00421   1.90642
   A43        1.91063   0.00380   0.00000   0.00533   0.00533   1.91596
   A44        1.91063   0.00117   0.00000   0.00167   0.00168   1.91231
   A45        1.91063  -0.00062   0.00000  -0.00083  -0.00083   1.90980
   A46        1.91063   0.00769   0.00000   0.00856   0.00856   1.91919
   A47        1.91063  -0.00124   0.00000  -0.00150  -0.00151   1.90913
   A48        1.91063  -0.00258   0.00000  -0.00242  -0.00243   1.90821
   A49        1.91063  -0.00090   0.00000  -0.00163  -0.00163   1.90900
   A50        1.91063  -0.00234   0.00000  -0.00218  -0.00219   1.90845
   A51        2.02720   0.02329   0.00000   0.01981   0.01981   2.04701
   A52        3.14159  -0.00265   0.00000  -0.00056  -0.00108   3.14052
   A53        3.14159   0.03317   0.00000   0.04374   0.04368   3.18528
    D1        3.14159   0.01183   0.00000   0.01895   0.01906  -3.12254
    D2        1.04720  -0.02924   0.00000  -0.04230  -0.04270   1.00449
    D3        2.09439   0.01399   0.00000   0.02311   0.02269   2.11708
    D4       -1.04720   0.01746   0.00000   0.02819   0.02845  -1.01875
    D5        3.14159  -0.02361   0.00000  -0.03305  -0.03331   3.10828
    D6       -2.09440   0.01962   0.00000   0.03235   0.03208  -2.06232
    D7        1.04720   0.01964   0.00000   0.02875   0.02848   1.07568
    D8       -1.04720  -0.02143   0.00000  -0.03249  -0.03328  -1.08048
    D9        0.00000   0.02180   0.00000   0.03291   0.03211   0.03211
   D10        2.64446  -0.00784   0.00000  -0.00772  -0.00724   2.63722
   D11        1.61414   0.00680   0.00000   0.00437   0.00438   1.61852
   D12        1.73979   0.00533   0.00000   0.00198   0.00204   1.74183
   D13       -1.70870  -0.01179   0.00000  -0.01175  -0.01137  -1.72006
   D14       -2.73902   0.00285   0.00000   0.00033   0.00025  -2.73877
   D15       -2.61337   0.00137   0.00000  -0.00206  -0.00208  -2.61545
   D16        0.46788  -0.01123   0.00000  -0.00988  -0.00929   0.45859
   D17       -0.56244   0.00342   0.00000   0.00220   0.00233  -0.56011
   D18       -0.43679   0.00194   0.00000  -0.00018  -0.00001  -0.43680
   D19        1.04720   0.02331   0.00000   0.03540   0.03577   1.08297
   D20       -1.04720   0.03180   0.00000   0.04569   0.04589  -1.00130
   D21       -3.14159   0.02592   0.00000   0.03585   0.03599  -3.10560
   D22       -1.04720  -0.02026   0.00000  -0.02865  -0.02855  -1.07575
   D23       -3.14159  -0.01177   0.00000  -0.01836  -0.01844   3.12316
   D24        1.04720  -0.01765   0.00000  -0.02821  -0.02833   1.01887
   D25        0.00000  -0.02621   0.00000  -0.03616  -0.03559  -0.03559
   D26       -2.09439  -0.01773   0.00000  -0.02587  -0.02547  -2.11987
   D27        2.09440  -0.02361   0.00000  -0.03571  -0.03537   2.05902
   D28       -1.69309  -0.00332   0.00000  -0.00810  -0.00786  -1.70096
   D29        1.97143  -0.00566   0.00000   0.00162   0.00016   1.97158
   D30       -0.12297   0.00002   0.00000  -0.00008  -0.00018  -0.12315
   D31       -2.21736   0.00441   0.00000  -0.00233  -0.00100  -2.21837
   D32        1.04526   0.01030   0.00000   0.01590   0.01563   1.06089
   D33        3.13966   0.01250   0.00000   0.01854   0.01844  -3.12509
   D34       -1.04913   0.01221   0.00000   0.01803   0.01793  -1.03120
   D35        3.13966  -0.01820   0.00000  -0.02465  -0.02527   3.11439
   D36       -1.04913  -0.01600   0.00000  -0.02202  -0.02245  -1.07158
   D37        1.04526  -0.01629   0.00000  -0.02252  -0.02296   1.02230
   D38       -1.04913  -0.00013   0.00000   0.00019   0.00014  -1.04899
   D39        1.04526   0.00207   0.00000   0.00283   0.00296   1.04822
   D40        3.13966   0.00178   0.00000   0.00232   0.00245  -3.14108
   D41        0.35559  -0.00020   0.00000  -0.00083  -0.00076   0.35483
   D42        2.44998   0.00200   0.00000   0.00181   0.00206   2.45204
   D43       -1.73881   0.00171   0.00000   0.00130   0.00155  -1.73726
   D44        0.56244  -0.00470   0.00000  -0.00474  -0.00484   0.55760
   D45       -0.46788   0.00571   0.00000   0.00193   0.00157  -0.46631
   D46       -2.37202  -0.00684   0.00000  -0.00849  -0.00862  -2.38064
   D47       -1.61414  -0.00309   0.00000   0.00007  -0.00002  -1.61416
   D48       -2.64446   0.00732   0.00000   0.00673   0.00639  -2.63807
   D49        1.73458  -0.00523   0.00000  -0.00368  -0.00380   1.73078
   D50        2.73902   0.00282   0.00000   0.00470   0.00469   2.74371
   D51        1.70870   0.01323   0.00000   0.01137   0.01110   1.71980
   D52       -0.19544   0.00068   0.00000   0.00095   0.00091  -0.19453
   D53       -0.52119   0.00266   0.00000   0.00358   0.00358  -0.51761
   D54       -2.61559  -0.00198   0.00000  -0.00205  -0.00214  -2.61772
   D55        1.57320   0.00199   0.00000   0.00292   0.00284   1.57604
   D56        0.20568  -0.00213   0.00000  -0.00154  -0.00138   0.20430
   D57       -0.00192   0.00151   0.00000  -0.00057  -0.00024  -0.00217
   D58       -0.37204   0.00423   0.00000   0.00120   0.00148  -0.37056
   D59        0.34396  -0.00124   0.00000  -0.00179  -0.00182   0.34213
   D60       -1.04914  -0.00419   0.00000  -0.00618  -0.00617  -1.05531
   D61        1.04526  -0.00302   0.00000  -0.00441  -0.00440   1.04086
   D62        3.13965  -0.00194   0.00000  -0.00276  -0.00275   3.13690
   D63        3.13965   0.00228   0.00000   0.00340   0.00339  -3.14014
   D64       -1.04914   0.00344   0.00000   0.00517   0.00517  -1.04397
   D65        1.04526   0.00453   0.00000   0.00682   0.00681   1.05207
   D66        1.04526  -0.00108   0.00000  -0.00158  -0.00158   1.04368
   D67        3.13965   0.00009   0.00000   0.00020   0.00020   3.13985
   D68       -1.04914   0.00117   0.00000   0.00184   0.00184  -1.04729
   D69       -0.73277  -0.00290   0.00000  -0.00433  -0.00433  -0.73709
   D70        1.36163  -0.00069   0.00000  -0.00229  -0.00229   1.35934
   D71       -2.82716  -0.00169   0.00000  -0.00315  -0.00314  -2.83031
         Item               Value     Threshold  Converged?
 Maximum Force            0.094226     0.000450     NO 
 RMS     Force            0.019297     0.000300     NO 
 Maximum Displacement     0.142737     0.001800     NO 
 RMS     Displacement     0.045784     0.001200     NO 
 Predicted change in Energy=-6.570533D-02
 GradGradGradGradGradGradGradGradGradGradGradGradGradGradGradGradGradGrad

                          Input orientation:                          
 ---------------------------------------------------------------------
 Center     Atomic      Atomic             Coordinates (Angstroms)
 Number     Number       Type             X           Y           Z
 ---------------------------------------------------------------------
      1          6           0       -3.824556    0.319275    0.023380
      2          1           0       -3.451070   -0.688890    0.018508
      3          1           0       -3.454436    0.828759    0.895282
      4          1           0       -4.894687    0.326550    0.000553
      5          6           0       -3.378768    1.053125   -1.257727
      6          1           0       -3.729322    2.060748   -1.252545
      7          6           0       -3.847352    0.331527   -2.537721
      8          1           0       -4.917459    0.331886   -2.512869
      9          1           0       -3.474359   -0.676965   -2.543364
     10          6           0       -3.338175    1.068109   -3.794609
     11          1           0       -2.268083    1.082501   -3.790489
     12          1           0       -3.686241    0.563304   -4.677174
     13          1           0       -3.707766    2.076728   -3.793505
     14         35           0       -0.557312    1.086166   -1.268364
     15          6           0       -5.960491    2.389650   -1.087688
     16          1           0       -5.442475    2.950539   -0.329814
     17          1           0       -5.926263    2.931715   -2.015976
     18          6           0       -7.429680    2.201220   -0.663988
     19          1           0       -7.467408    1.661694    0.263119
     20          1           0       -7.900855    3.158914   -0.537749
     21          1           0       -7.950249    1.645819   -1.420684
     22          8           0       -5.340173    1.108549   -1.251247
 ---------------------------------------------------------------------
                    Distance matrix (angstroms):
                    1          2          3          4          5
     1  C    0.000000
     2  H    1.075134   0.000000
     3  H    1.075535   1.752713   0.000000
     4  H    1.070400   1.765070   1.768354   0.000000
     5  C    1.542237   2.160698   2.165990   2.099807   0.000000
     6  H    2.160967   3.041957   2.491288   2.436344   1.066873
     7  C    2.561231   2.780754   3.491007   2.745864   1.542290
     8  H    2.761730   3.098410   3.742033   2.513531   2.112614
     9  H    2.775483   2.562005   3.753916   3.081540   2.157594
    10  C    3.921015   4.199958   4.697434   4.168440   2.537251
    11  H    4.189358   4.364142   4.840276   4.673598   2.765749
    12  H    4.708915   4.865462   5.583589   4.837099   3.468009
    13  H    4.203675   4.716563   4.858634   4.343591   2.754301
    14  Br   3.596055   3.630523   3.625046   4.582575   2.821670
    15  C    3.175396   4.122896   3.556523   2.564486   2.912131
    16  H    3.109012   4.163228   3.155172   2.700839   2.952980
    17  H    3.924410   4.834717   4.359791   3.452162   3.254809
    18  C    4.124453   4.964662   4.485258   3.222140   4.252122
    19  H    3.889722   4.660048   4.146969   2.910402   4.404578
    20  H    4.999463   5.908943   5.220521   4.165225   5.040038
    21  H    4.567974   5.269227   5.122852   3.618956   4.612622
    22  O    2.131835   2.900305   2.870866   1.541747   1.962199
                    6          7          8          9         10
     6  H    0.000000
     7  C    2.157733   0.000000
     8  H    2.447254   1.070395   0.000000
     9  H    3.037481   1.075273   1.761035   0.000000
    10  C    2.756885   1.543237   2.163104   2.151615   0.000000
    11  H    3.087612   2.151158   3.035610   2.471062   1.070197
    12  H    3.737951   2.157993   2.500733   2.477157   1.074662
    13  H    2.541102   2.154577   2.479487   3.033176   1.074202
    14  Br   3.318389   3.606260   4.596587   3.639151   3.757052
    15  C    2.261298   3.286916   2.711725   4.207608   3.993799
    16  H    2.139639   3.778689   3.449452   4.683169   4.469499
    17  H    2.483539   3.369728   2.832615   4.394604   3.651679
    18  C    3.749504   4.454177   3.636486   5.240283   5.274953
    19  H    4.053365   4.766429   3.997092   5.412034   5.819627
    20  H    4.372481   5.331499   4.560026   6.191149   5.983029
    21  H    4.244604   4.450718   3.480963   5.166171   5.219242
    22  O    1.871236   2.118323   1.540644   2.887713   3.237023
                   11         12         13         14         15
    11  H    0.000000
    12  H    1.751271   0.000000
    13  H    1.749623   1.752651   0.000000
    14  Br   3.047600   4.656562   4.157272   0.000000
    15  C    4.758954   4.625166   3.534704   5.561120   0.000000
    16  H    5.053969   5.261443   3.971135   5.312399   1.075783
    17  H    4.466629   4.208212   2.968559   5.726310   1.075512
    18  C    6.137477   5.727282   4.864362   6.988424   1.540631
    19  H    6.618170   6.317450   5.546472   7.101134   2.150674
    20  H    6.827878   6.452518   5.417847   7.665358   2.158521
    21  H    6.182258   5.473420   4.880023   7.415655   2.150188
    22  O    3.985745   3.843144   3.172570   4.782944   1.432747
                   16         17         18         19         20
    16  H    0.000000
    17  H    1.754294   0.000000
    18  C    2.149915   2.149827   0.000000
    19  H    2.472457   3.030240   1.073331   0.000000
    20  H    2.475942   2.477051   1.074765   1.752408   0.000000
    21  H    3.030053   2.470712   1.073336   1.751736   1.752561
    22  O    2.062142   2.062098   2.429988   2.669158   3.357107
                   21         22
    21  H    0.000000
    22  O    2.670181   0.000000
 Stoichiometry    C6H14BrO(1-)
 Framework group  C1[X(C6H14BrO)]
 Deg. of freedom    60
 Full point group                 C1      NOp   1
 Largest Abelian subgroup         C1      NOp   1
 Largest concise Abelian subgroup C1      NOp   1
                         Standard orientation:                         
 ---------------------------------------------------------------------
 Center     Atomic      Atomic             Coordinates (Angstroms)
 Number     Number       Type             X           Y           Z
 ---------------------------------------------------------------------
      1          6           0        0.595090   -1.333537    1.038347
      2          1           0        0.089936   -1.286659    1.986257
      3          1           0        0.350562   -2.261886    0.553424
      4          1           0        1.653103   -1.235895    1.168085
      5          6           0        0.174777   -0.139741    0.157050
      6          1           0        0.657196   -0.188506   -0.793272
      7          6           0        0.463347    1.216064    0.833202
      8          1           0        1.523308    1.266723    0.973423
      9          1           0       -0.041411    1.263766    1.781440
     10          6           0       -0.017820    2.381105   -0.057157
     11          1           0       -1.074021    2.300615   -0.209742
     12          1           0        0.204876    3.318194    0.419467
     13          1           0        0.483313    2.337672   -1.006309
     14         35           0       -2.612021   -0.330237   -0.242056
     15          6           0        2.918186   -0.217630   -0.816679
     16          1           0        2.527343   -1.046405   -1.380313
     17          1           0        2.900645    0.667047   -1.428042
     18          6           0        4.371783   -0.522982   -0.407581
     19          1           0        4.393056   -1.406409    0.201635
     20          1           0        4.974166   -0.680339   -1.283649
     21          1           0        4.765960    0.304428    0.151048
     22          8           0        2.122566   -0.011717    0.356929
 ---------------------------------------------------------------------
 Rotational constants (GHZ):      2.3801086      0.4668932      0.4268077
 Standard basis: 3-21G (6D, 7F)
 There are   114 symmetry adapted basis functions of A   symmetry.
 Integral buffers will be    262144 words long.
 Raffenetti 1 integral format.
 Two-electron integral symmetry is turned on.
   114 basis functions,   204 primitive gaussians,   114 cartesian basis functions
    47 alpha electrons       47 beta electrons
       nuclear repulsion energy       587.2688992445 Hartrees.
 NAtoms=   22 NActive=   22 NUniq=   22 SFac= 7.50D-01 NAtFMM=   80 NAOKFM=F Big=F
 One-electron integrals computed using PRISM.
 NBasis=   114 RedAO= T  NBF=   114
 NBsUse=   114 1.00D-06 NBFU=   114
 Initial guess read from the read-write file.
 B after Tr=     0.000000    0.000000    0.000000
         Rot=    1.000000    0.000000    0.000000    0.000000 Ang=   0.00 deg.
 Initial guess orbital symmetries:
       Occupied  (A) (A) (A) (A) (A) (A) (A) (A) (A) (A) (A) (A)
                 (A) (A) (A) (A) (A) (A) (A) (A) (A) (A) (A) (A)
                 (A) (A) (A) (A) (A) (A) (A) (A) (A) (A) (A) (A)
                 (A) (A) (A) (A) (A) (A) (A) (A) (A) (A) (A)
       Virtual   (A) (A) (A) (A) (A) (A) (A) (A) (A) (A) (A) (A)
                 (A) (A) (A) (A) (A) (A) (A) (A) (A) (A) (A) (A)
                 (A) (A) (A) (A) (A) (A) (A) (A) (A) (A) (A) (A)
                 (A) (A) (A) (A) (A) (A) (A) (A) (A) (A) (A) (A)
                 (A) (A) (A) (A) (A) (A) (A) (A) (A) (A) (A) (A)
                 (A) (A) (A) (A) (A) (A) (A)
 Harris functional with IExCor=  205 diagonalized for initial guess.
 ExpMin= 1.65D-01 ExpMax= 6.10D+03 ExpMxC= 6.10D+03 IAcc=1 IRadAn=         1 AccDes= 0.00D+00
 HarFok:  IExCor=  205 AccDes= 0.00D+00 IRadAn=         1 IDoV= 1
 ScaDFX=  1.000000  1.000000  1.000000  1.000000
 FoFCou: FMM=F IPFlag=           0 FMFlag=      100000 FMFlg1=           0
         NFxFlg=           0 DoJE=T BraDBF=F KetDBF=T FulRan=T
         Omega=  0.000000  0.000000  1.000000  0.000000  0.000000 ICntrl=     500 IOpCl=  0
         NMat0=    1 NMatS0=    1 NMatT0=    0 NMatD0=    1 NMtDS0=    0 NMtDT0=    0
         I1Cent=           4 NGrid=           0.
 Petite list used in FoFCou.
 Requested convergence on RMS density matrix=1.00D-08 within 128 cycles.
 Requested convergence on MAX density matrix=1.00D-06.
 Requested convergence on             energy=1.00D-06.
 No special actions if energy rises.
 Keep R1 ints in memory in canonical form, NReq=22365846.
 SCF Done:  E(RHF) =  -2868.39186686     A.U. after   12 cycles
             Convg  =    0.4474D-08             -V/T =  1.9969
 Calling FoFJK, ICntrl=      2127 FMM=F ISym2X=0 I1Cent= 0 IOpClX= 0 NMat=1 NMatS=1 NMatT=0.
 ***** Axes restored to original set *****
 -------------------------------------------------------------------
 Center     Atomic                   Forces (Hartrees/Bohr)
 Number     Number              X              Y              Z
 -------------------------------------------------------------------
      1        6           0.070312974   -0.024627677    0.039507205
      2        1           0.009697218   -0.006226338    0.003471008
      3        1           0.007139782    0.000322646    0.007727233
      4        1           0.011321639   -0.010567886    0.010821734
      5        6          -0.118148808   -0.027505189    0.004706552
      6        1           0.051531019    0.019977165   -0.001279993
      7        6           0.072630138   -0.021156208   -0.051462983
      8        1           0.012182125   -0.011115102   -0.008703101
      9        1           0.009345417   -0.006925440   -0.000651687
     10        6           0.000735842   -0.009759239    0.006631190
     11        1           0.008887007    0.002701938   -0.001614717
     12        1          -0.003200810   -0.001960095   -0.008899534
     13        1          -0.002947871    0.008123870   -0.002244878
     14       35          -0.018589410    0.000538684    0.000349303
     15        6          -0.005998926   -0.032353689   -0.001109127
     16        1           0.002098474    0.011964847    0.007233084
     17        1          -0.000985351    0.012444459   -0.006297604
     18        6           0.010074903    0.008449559   -0.003212526
     19        1          -0.000605657   -0.004440609    0.005555138
     20        1          -0.007982551    0.007000082    0.002071946
     21        1          -0.003180892   -0.004852359   -0.004226913
     22        8          -0.104316262    0.089966582    0.001628671
 -------------------------------------------------------------------
 Cartesian Forces:  Max     0.118148808 RMS     0.029123734

 GradGradGradGradGradGradGradGradGradGradGradGradGradGradGradGradGradGrad
 Berny optimization.
 Using GEDIIS/GDIIS optimizer.
 Internal  Forces:  Max     0.058451152 RMS     0.013104972
 Search for a local minimum.
 Step number   2 out of a maximum of  132
 All quantities printed in internal units (Hartrees-Bohrs-Radians)
 Mixed Optimization -- RFO/linear search
 Update second derivatives using D2CorX and points    1    2
 DE= -5.86D-02 DEPred=-6.57D-02 R= 8.91D-01
 SS=  1.41D+00  RLast= 3.00D-01 DXNew= 5.0454D-01 8.9947D-01
 Trust test= 8.91D-01 RLast= 3.00D-01 DXMaxT set to 5.05D-01
 Use linear search instead of GDIIS.
 Linear search step of   0.600 exceeds DXMaxT=   0.505 but not scaled.
 Quartic linear search produced a step of  2.00000.
 Iteration  1 RMS(Cart)=  0.08207560 RMS(Int)=  0.00438108
 Iteration  2 RMS(Cart)=  0.00622914 RMS(Int)=  0.00257911
 Iteration  3 RMS(Cart)=  0.00005054 RMS(Int)=  0.00257889
 Iteration  4 RMS(Cart)=  0.00000024 RMS(Int)=  0.00257889
 Variable       Old X    -DE/DX   Delta X   Delta X   Delta X     New X
                                 (Linear)    (Quad)   (Total)
    R1        2.03171   0.00919   0.01940   0.00000   0.01940   2.05111
    R2        2.03247   0.00887   0.02092   0.00000   0.02092   2.05338
    R3        2.02276   0.00529   0.00151   0.00000   0.00449   2.02725
    R4        2.91441   0.00424   0.00846   0.00000   0.00328   2.91768
    R5        6.79556  -0.02098  -0.08103   0.00000  -0.07914   6.71642
    R6        2.91348   0.05460   0.21048   0.00000   0.21665   3.13013
    R7        2.01610  -0.00138  -0.01182   0.00000  -0.01183   2.00427
    R8        2.91451   0.00430   0.00866   0.00000   0.00235   2.91685
    R9        5.33218   0.01994   0.08190   0.00000   0.07931   5.41149
   R10        3.70802   0.05845   0.23508   0.00000   0.22898   3.93700
   R11        6.27085   0.00319   0.01680   0.00000   0.01523   6.28608
   R12        3.53612   0.02596   0.10373   0.00000   0.10411   3.64024
   R13        2.02275   0.00426   0.00149   0.00000   0.00452   2.02728
   R14        2.03197   0.00974   0.01993   0.00000   0.01993   2.05190
   R15        2.91630   0.00339   0.01224   0.00000   0.01223   2.92853
   R16        6.81484  -0.01304  -0.04246   0.00000  -0.04242   6.77243
   R17        2.91140   0.05672   0.20631   0.00000   0.21330   3.12469
   R18        2.02238   0.00191   0.00074   0.00000   0.00261   2.02499
   R19        2.03082   0.00927   0.01762   0.00000   0.01762   2.04844
   R20        2.02995   0.00864   0.01588   0.00000   0.01588   2.04583
   R21        5.75913  -0.00319  -0.01511   0.00000  -0.01340   5.74573
   R22        2.03294   0.01234   0.02186   0.00000   0.02186   2.05479
   R23        2.03242   0.01168   0.02083   0.00000   0.02083   2.05325
   R24        2.91137   0.00091   0.00239   0.00000   0.00239   2.91376
   R25        2.70750   0.00125   0.01038   0.00000   0.01038   2.71788
   R26        2.02830   0.00705   0.01259   0.00000   0.01259   2.04089
   R27        2.03101   0.00998   0.01801   0.00000   0.01801   2.04902
   R28        2.02831   0.00703   0.01261   0.00000   0.01261   2.04092
    A1        1.90533  -0.00299  -0.01061   0.00000  -0.01078   1.89455
    A2        1.93219   0.01322   0.04311   0.00000   0.04472   1.97691
    A3        1.91986   0.00329   0.01845   0.00000   0.01680   1.93666
    A4        1.45325  -0.00077  -0.00236   0.00000  -0.00232   1.45093
    A5        1.93704   0.01563   0.05281   0.00000   0.05317   1.99021
    A6        1.92680   0.00844   0.03233   0.00000   0.03211   1.95891
    A7        1.44801  -0.00452  -0.01285   0.00000  -0.01102   1.43699
    A8        1.84215  -0.03813  -0.13697   0.00000  -0.14019   1.70196
    A9        2.68879  -0.02365  -0.07959   0.00000  -0.08617   2.60262
   A10        1.92879   0.00681   0.03631   0.00000   0.02950   1.95829
   A11        1.95946   0.03074   0.09766   0.00000   0.08596   2.04543
   A12        1.28884   0.03034   0.11575   0.00000   0.10736   1.39619
   A13        1.92420   0.00405   0.02713   0.00000   0.02031   1.94450
   A14        1.20773  -0.01175  -0.04646   0.00000  -0.04521   1.16252
   A15        1.27893   0.02499   0.09593   0.00000   0.08847   1.36739
   A16        1.85909  -0.02728  -0.10309   0.00000  -0.10441   1.75468
   A17        1.91535   0.00076   0.00944   0.00000   0.00805   1.92341
   A18        1.93091   0.01358   0.04055   0.00000   0.04002   1.97092
   A19        1.92541   0.00826   0.02955   0.00000   0.02941   1.95481
   A20        1.92687   0.00801   0.03248   0.00000   0.03479   1.96167
   A21        2.69942  -0.01533  -0.05833   0.00000  -0.06202   2.63740
   A22        1.90597  -0.00350  -0.00934   0.00000  -0.00964   1.89633
   A23        1.45216  -0.00139  -0.00454   0.00000  -0.00430   1.44786
   A24        1.45633   0.00162   0.00381   0.00000   0.00432   1.46065
   A25        1.91048   0.00021  -0.00030   0.00000  -0.00014   1.91035
   A26        1.91537   0.00256   0.00948   0.00000   0.00940   1.92478
   A27        1.91113   0.00052   0.00099   0.00000   0.00097   1.91210
   A28        1.91063  -0.00016  -0.00001   0.00000   0.00062   1.91125
   A29        1.90858  -0.00128  -0.00411   0.00000  -0.00489   1.90369
   A30        1.90759  -0.00187  -0.00608   0.00000  -0.00608   1.90151
   A31        2.17062  -0.00348  -0.00769   0.00000  -0.00872   2.16190
   A32        0.63078   0.00328   0.01293   0.00000   0.01027   0.64105
   A33        0.72713   0.01086   0.03427   0.00000   0.02909   0.75623
   A34        1.35615   0.01302   0.04062   0.00000   0.03576   1.39191
   A35        0.97858   0.00715   0.02108   0.00000   0.01922   0.99780
   A36        0.62846   0.00215   0.00827   0.00000   0.00575   0.63421
   A37        1.00949   0.00610   0.01869   0.00000   0.01663   1.02612
   A38        0.63735   0.00208   0.00606   0.00000   0.00632   0.64367
   A39        1.90705  -0.00215  -0.00718   0.00000  -0.00739   1.89966
   A40        1.90627  -0.00291  -0.00872   0.00000  -0.00880   1.89747
   A41        1.91573   0.00351   0.01020   0.00000   0.01021   1.92594
   A42        1.90642  -0.00280  -0.00842   0.00000  -0.00850   1.89793
   A43        1.91596   0.00367   0.01066   0.00000   0.01067   1.92663
   A44        1.91231   0.00062   0.00335   0.00000   0.00338   1.91569
   A45        1.90980  -0.00078  -0.00166   0.00000  -0.00169   1.90812
   A46        1.91919   0.00653   0.01711   0.00000   0.01709   1.93628
   A47        1.90913  -0.00109  -0.00301   0.00000  -0.00303   1.90610
   A48        1.90821  -0.00199  -0.00485   0.00000  -0.00488   1.90333
   A49        1.90900  -0.00085  -0.00326   0.00000  -0.00328   1.90573
   A50        1.90845  -0.00187  -0.00437   0.00000  -0.00439   1.90406
   A51        2.04701   0.02147   0.03962   0.00000   0.03961   2.08661
   A52        3.14052  -0.00156  -0.00215   0.00000  -0.00518   3.13534
   A53        3.18528   0.02305   0.08737   0.00000   0.08639   3.27167
    D1       -3.12254   0.01071   0.03811   0.00000   0.03860  -3.08393
    D2        1.00449  -0.02172  -0.08540   0.00000  -0.08758   0.91691
    D3        2.11708   0.01035   0.04538   0.00000   0.04358   2.16066
    D4       -1.01875   0.01454   0.05690   0.00000   0.05796  -0.96079
    D5        3.10828  -0.01789  -0.06662   0.00000  -0.06823   3.04005
    D6       -2.06232   0.01418   0.06416   0.00000   0.06293  -1.99938
    D7        1.07568   0.01522   0.05696   0.00000   0.05526   1.13094
    D8       -1.08048  -0.01721  -0.06656   0.00000  -0.07092  -1.15140
    D9        0.03211   0.01486   0.06423   0.00000   0.06024   0.09235
   D10        2.63722  -0.00402  -0.01448   0.00000  -0.01215   2.62507
   D11        1.61852   0.00371   0.00876   0.00000   0.00890   1.62742
   D12        1.74183   0.00238   0.00408   0.00000   0.00450   1.74633
   D13       -1.72006  -0.00617  -0.02273   0.00000  -0.02084  -1.74090
   D14       -2.73877   0.00156   0.00051   0.00000   0.00021  -2.73856
   D15       -2.61545   0.00024  -0.00417   0.00000  -0.00419  -2.61965
   D16        0.45859  -0.00642  -0.01858   0.00000  -0.01550   0.44309
   D17       -0.56011   0.00130   0.00467   0.00000   0.00554  -0.55457
   D18       -0.43680  -0.00002  -0.00001   0.00000   0.00114  -0.43566
   D19        1.08297   0.01792   0.07155   0.00000   0.07378   1.15675
   D20       -1.00130   0.02345   0.09178   0.00000   0.09287  -0.90843
   D21       -3.10560   0.01864   0.07199   0.00000   0.07289  -3.03270
   D22       -1.07575  -0.01591  -0.05711   0.00000  -0.05620  -1.13194
   D23        3.12316  -0.01038  -0.03687   0.00000  -0.03711   3.08605
   D24        1.01887  -0.01519  -0.05667   0.00000  -0.05708   0.96178
   D25       -0.03559  -0.01728  -0.07118   0.00000  -0.06810  -0.10369
[...]
 9,0.00030514,0.00036819,0.00691079,-0.01747936,-0.02552234,0.00081992,
 0.00045915,0.00091304,-0.00101307,-0.00027329,0.00104892,0.04931252,-0
 .10854026,-0.25259480,0.00052231,-0.00173952,-0.00317609,-0.05608891,0
 .12145947,0.28201623,0.00007722,-0.00016170,-0.00029637,0.00006719,-0.
 00007257,0.00003560,0.00000781,0.00002787,-0.00015599,-0.00000344,0.00
 001844,0.00002301,-0.00199736,0.00146980,-0.00025133,0.00000954,0.0000
 2302,-0.00001349,-0.00449322,0.00089755,-0.00022757,0.00105779,0.00044
 382,-0.00030747,0.00148934,0.00054383,-0.00024189,-0.31933421,0.082558
 80,-0.00824249,-0.02173253,0.00831699,-0.00000783,-0.00579195,0.001359
 44,0.00078237,0.34979668,0.00000161,0.00001652,-0.00005092,-0.00010388
 ,0.00006386,-0.00007896,-0.00007771,0.00002277,0.00004732,0.00000320,-
 0.00006241,0.00002239,0.00046952,-0.00015304,-0.00084885,-0.00010601,0
 .00000155,0.00006121,0.02632964,-0.00929206,0.00300919,0.00006508,0.00
 022668,-0.00120872,0.00021424,-0.00252458,0.00451319,0.07966827,-0.084
 19303,0.00032736,-0.03076429,0.01231567,-0.00039755,0.01801835,-0.0068
 8440,0.00090017,-0.09347195,0.09096896,0.00041325,-0.00002070,0.000017
 93,0.00018897,-0.00020749,0.00029840,0.00007004,-0.00003056,-0.0000969
 9,-0.00003712,0.00004210,0.00001844,-0.00314195,0.00077856,0.00065050,
 0.00020936,-0.00015185,0.00006077,-0.03199827,0.01133689,-0.00278542,0
 .00058600,-0.00063452,0.00145997,-0.00057176,0.00405702,-0.00516979,-0
 .00263298,-0.00157050,-0.05660457,-0.00463221,0.00171807,-0.00050174,0
 .03405597,-0.00980651,0.00170796,0.00506468,-0.00400949,0.06124539,-0.
 00034524,-0.00037797,-0.00016014,0.00024993,-0.00029223,0.00007582,-0.
 00009306,0.00010565,-0.00005638,-0.00002760,-0.00020968,0.00018263,-0.
 00044656,0.00102927,0.00036261,-0.00157877,-0.00088554,-0.00005350,-0.
 00036213,0.00005318,0.00009058,0.00001417,-0.00023323,-0.00006340,0.00
 030618,-0.00038624,-0.00005559,0.00060087,-0.00031457,-0.00056661,-0.0
 0150326,-0.00006417,0.00016060,-0.00010270,-0.00056949,-0.00032667,0.0
 0033636,0.00024091,0.00022348,0.00532091,-0.00086215,-0.00063339,-0.00
 044491,0.00008470,0.00009945,-0.00009548,0.00000695,0.00012110,0.00018
 269,-0.00017291,-0.00055390,0.00039460,0.00249959,-0.00007377,0.000961
 87,-0.00112547,-0.00236041,-0.00058667,-0.00027277,0.00037407,0.000229
 40,-0.00019254,-0.00058283,-0.00021615,0.00006701,0.00021958,0.0000610
 6,0.00031198,0.00031917,-0.00097109,-0.00033769,-0.00129520,0.00074329
 ,-0.00028108,-0.00065020,-0.00044263,-0.00043027,-0.00018259,-0.000077
 64,0.00430965,0.00627167,-0.00004465,0.00010454,0.00025066,-0.00002011
 ,-0.00005192,-0.00007070,-0.00015107,-0.00012222,0.00034803,0.00012114
 ,0.00019402,-0.00003454,-0.00025374,-0.00038334,-0.00033673,0.00017075
 ,0.00015481,-0.00115069,0.00008784,0.00028632,-0.00053633,-0.00000905,
 -0.00016290,0.00050076,0.00003690,0.00001548,0.00005156,0.00053702,0.0
 0021970,-0.00030822,-0.00046944,-0.00005170,-0.00019705,-0.00019829,-0
 .00049628,0.00002472,-0.00015428,-0.00007266,-0.00019953,-0.00078823,-
 0.00025261,0.00155992,-0.00023568,-0.00059845,0.00016478,0.00018993,-0
 .00023214,-0.00001698,-0.00003606,0.00027423,-0.00031526,-0.00023242,0
 .00010134,-0.00000174,-0.01654871,0.04489000,0.01700431,0.00082756,0.0
 0151387,0.00105349,-0.00562640,0.00184552,-0.00104762,0.00006727,0.000
 13181,-0.00011301,0.00003133,0.00065551,0.00111187,0.00017247,-0.00010
 438,-0.00043567,-0.00023215,-0.00004496,0.00024334,0.00014851,-0.00021
 133,-0.00027304,0.00030377,-0.00024969,0.00082285,-0.00008823,0.000535
 21,0.00032646,0.60464014,-0.00350674,0.00079445,0.00152180,-0.00068642
 ,0.00151398,-0.00116844,0.00068926,-0.00055892,0.00015785,0.00062310,-
 0.00007504,-0.00019245,0.01510485,-0.02203408,-0.00649134,-0.00630167,
 0.00589164,0.00014363,-0.00375454,0.00008029,0.00016000,0.00031318,0.0
 0008820,0.00021328,-0.00079910,0.00100441,0.00140080,0.00042203,0.0006
 3226,0.00015738,-0.00023812,0.00029572,0.00010362,-0.00022827,-0.00013
 885,0.00056543,-0.00003668,0.00032639,-0.00138106,0.00300407,-0.000844
 60,-0.00108205,0.07191177,0.55027646,-0.00517342,0.00274869,0.00225169
 ,-0.00019864,0.00065830,-0.00176462,-0.00034859,-0.00013182,-0.0015766
 6,0.00035166,-0.00018870,-0.00008384,0.00518436,-0.00160205,-0.0034121
 5,-0.00115611,0.00123061,0.00086371,0.00081160,-0.00036677,-0.00024786
 ,0.00013523,0.00039200,0.00020699,-0.00018085,0.00020437,0.00007639,0.
 00090168,-0.00025812,0.00018917,0.00028673,0.00015784,-0.00019450,-0.0
 0034797,0.00034368,0.00026676,-0.00047630,-0.00047468,-0.00063233,-0.0
 0020058,-0.00085705,0.00010245,-0.02543524,-0.04049317,0.63571936,0.00
 031361,0.00008536,-0.00008643,0.00001030,-0.00011740,-0.00004284,-0.00
 004006,0.00037652,-0.00019059,-0.00001986,-0.00011558,-0.00002257,0.00
 183919,-0.00172983,0.00114843,-0.00023594,-0.00011891,0.00020671,-0.00
 027933,-0.00004157,-0.00002088,0.00001753,-0.00003885,-0.00006988,-0.0
 0006879,0.00008238,0.00009124,-0.00005683,-0.00004509,-0.00000081,0.00
 006181,-0.00000336,-0.00003648,-0.00001592,0.00006229,0.00003672,-0.00
 002752,0.00001437,-0.00011898,-0.00050872,-0.00015462,-0.00028740,-0.0
 6827281,-0.00344427,-0.00734800,0.06658149,-0.00011440,-0.00007142,0.0
 0006831,-0.00002670,0.00004135,0.00020615,0.00027756,-0.00038440,0.000
 34625,-0.00005619,0.00002490,-0.00002187,-0.00471401,0.00273824,-0.001
 86962,0.00080578,-0.00034035,0.00028615,0.00090896,-0.00009748,0.00021
 616,-0.00004901,0.00015895,0.00006317,0.00021853,-0.00020765,-0.000335
 68,-0.00007325,-0.00007600,0.00005400,0.00011452,-0.00004114,-0.000048
 05,0.00005588,0.00003701,-0.00007901,-0.00001296,-0.00018221,0.0003888
 4,-0.00047541,0.00013343,-0.00017813,-0.00075139,-0.06186138,0.0251235
 6,-0.00368006,0.07278764,0.00067012,-0.00056658,-0.00085906,-0.0000229
 5,-0.00009172,0.00045434,-0.00007394,0.00035292,0.00086997,-0.00011212
 ,0.00014110,0.00012117,-0.00320403,0.00183840,-0.00148078,0.00063572,-
 0.00014171,-0.00012054,0.00083020,-0.00015121,0.00026272,-0.00011687,0
 .00003547,0.00005523,0.00016916,-0.00020215,-0.00027613,-0.00015640,0.
 00005036,0.00011400,-0.00005580,-0.00001867,0.00001638,0.00009546,-0.0
 0011254,-0.00007453,0.00012106,-0.00004674,0.00029688,0.00076162,0.000
 33818,0.00036518,-0.00880011,0.02316797,-0.32087524,0.01193232,-0.0141
 9342,0.35547111,-0.00063229,-0.00007202,-0.00022690,-0.00009075,0.0001
 4232,-0.00012242,0.00005094,-0.00002091,0.00006832,-0.00005830,-0.0000
 9596,0.00008800,0.00568901,0.00078690,0.00005497,-0.00001554,0.0006672
 0,-0.00013484,0.00008573,0.00017577,0.00003992,-0.00006857,-0.00005636
 ,0.00001430,-0.00008592,0.00006532,0.00002537,0.00017043,0.00006476,-0
 .00002863,0.00005760,0.00007858,0.00016036,-0.00009542,0.00001092,0.00
 003987,-0.00012285,-0.00004186,-0.00017669,-0.00155311,-0.00056958,0.0
 0013599,-0.20504363,-0.12948536,0.06693894,0.00457625,0.00256801,-0.00
 217219,0.21895788,0.00095591,0.00005722,-0.00003950,0.00011018,-0.0001
 4362,0.00025629,-0.00003875,-0.00000720,0.00007519,-0.00002333,0.00028
 314,-0.00021611,-0.00698128,0.00089717,0.00133493,0.00187860,-0.000213
 42,0.00016953,0.00008560,0.00017112,-0.00002221,0.00001561,0.00023066,
 0.00016243,0.00005981,0.00001455,-0.00007605,-0.00008500,-0.00006927,0
 .00000877,0.00014975,0.00001181,-0.00009633,0.00001654,0.00010197,-0.0
 0001637,-0.00005559,-0.00010223,0.00013556,-0.00123849,-0.00130600,0.0
 0038162,-0.11934214,-0.17123640,0.06316765,-0.00161486,0.00225063,0.00
 218265,0.13039832,0.19769258,0.00026699,-0.00008724,-0.00025206,0.0000
 1575,-0.00003705,0.00018032,0.00008543,0.00011991,0.00009403,-0.000026
 05,0.00003614,-0.00005183,-0.00219035,0.00150320,0.00043275,0.00006047
 ,0.00020077,0.00042134,-0.00032599,-0.00014829,0.00008496,0.00000844,0
 .00006461,-0.00006919,0.00003043,0.00004112,-0.00003285,0.00002307,-0.
 00003718,0.00005748,0.00019360,-0.00008056,-0.00010322,-0.00001765,0.0
 0009976,-0.00002394,-0.00014339,-0.00009285,0.00004171,0.00049808,0.00
 038012,-0.00166420,0.07174439,0.06851321,-0.10394108,0.02837305,0.0246
 8834,-0.01474494,-0.07369854,-0.06346803,0.10786076,-0.00002407,0.0002
 8958,0.00009938,-0.00002478,0.00000407,-0.00002578,-0.00002407,0.00001
 462,-0.00005053,0.00002796,-0.00000258,-0.00009680,0.00105255,0.000123
 53,0.00002487,0.00044754,0.00009880,0.00008960,0.00001797,0.00021186,0
 .00006096,-0.00001264,0.00006395,0.00007562,-0.00000525,-0.00001470,0.
 00000607,-0.00002038,-0.00001299,0.00002753,0.00000678,-0.00000764,-0.
 00002910,0.00000902,0.00001288,0.00000498,0.00000733,-0.00005651,-0.00
 002559,-0.00022938,-0.00013743,0.00017715,-0.17759915,0.01604173,-0.02
 895671,-0.00326514,0.00004998,0.00058022,-0.02465173,0.01199301,-0.011
 59357,0.52954953,0.00135996,-0.00026373,-0.00022593,0.00011112,-0.0002
 9430,0.00046057,-0.00005938,0.00004392,0.00019391,-0.00003170,-0.00002
 483,-0.00007629,-0.00407438,-0.00506683,-0.00168451,0.00014530,-0.0000
 3245,-0.00007390,0.00170102,-0.00020213,0.00047963,-0.00009327,-0.0000
 3816,0.00004056,0.00013036,-0.00032956,-0.00051295,-0.00014116,-0.0000
 6113,0.00009622,0.00004996,-0.00005084,-0.00006037,0.00003221,0.000039
 15,-0.00007319,-0.00008080,0.00005255,0.00008152,-0.00095273,-0.000220
 88,0.00041013,0.00474041,-0.08952251,0.00961096,0.00366738,0.00016897,
 0.00165092,-0.02010951,0.01158062,-0.00896614,0.03435531,0.63713512,0.
 00064994,-0.00052320,-0.00045012,0.00004041,-0.00007783,0.00033590,0.0
 0002912,-0.00004717,0.00040304,-0.00003860,0.00008749,0.00006906,-0.00
 097372,-0.00228924,-0.00101481,-0.00006974,-0.00001281,-0.00015680,0.0
 0070678,-0.00031445,0.00038442,-0.00004288,-0.00000489,-0.00000736,0.0
 0007348,-0.00010977,-0.00031967,0.00031612,-0.00003518,0.00017014,0.00
 000565,0.00002836,0.00005241,-0.00011137,0.00006025,-0.00003594,-0.000
 10343,-0.00015739,-0.00019602,0.00038886,0.00015683,-0.00019168,-0.033
 84062,0.01435560,-0.10756515,-0.04035077,0.01270701,-0.01009280,0.0117
 9935,-0.00554319,0.00501299,-0.03712159,0.01403443,0.63671753,0.000063
 65,0.00004705,-0.00005596,0.00003745,-0.00000300,0.00001030,-0.0000450
 5,-0.00004800,0.00002256,-0.00000060,0.00012940,-0.00001008,0.00011556
 ,-0.00003151,0.00007881,0.00037995,-0.00009395,-0.00001023,0.00005986,
 0.00004012,0.00002738,-0.00000256,0.00008658,0.00003989,0.00000323,-0.
 00000782,-0.00002358,-0.00000855,-0.00000022,0.00001343,0.00005718,-0.
 00002447,-0.00005389,-0.00001200,0.00004497,0.00001249,-0.00004248,-0.
 00005357,-0.00000119,-0.00068507,-0.00011631,0.00022213,-0.03034479,-0
 .02878988,0.01354593,0.00197739,0.00006439,-0.00044187,-0.00463465,0.0
 0398133,-0.00321297,-0.18086706,-0.12334026,0.05867329,0.20093927,-0.0
 0012249,0.00003399,0.00001435,-0.00002746,0.00003938,-0.00004274,0.000
 00653,-0.00001510,-0.00000153,0.00001373,-0.00000166,0.00001581,0.0005
 0514,0.00000134,0.00007593,-0.00003233,-0.00011509,-0.00002585,-0.0000
 9448,-0.00000551,-0.00003558,0.00001663,-0.00000029,-0.00001331,-0.000
 02982,0.00003204,0.00004180,0.00001567,0.00001306,-0.00000631,0.000014
 31,-0.00000536,-0.00000450,-0.00001547,0.00001438,0.00002698,-0.000013
 92,-0.00000985,-0.00003431,-0.00008654,0.00002301,-0.00000773,0.010413
 87,0.00696954,-0.00374353,-0.00096043,0.00030620,-0.00075798,0.0024325
 9,-0.00021701,0.00031567,-0.12764729,-0.18565291,0.05910788,0.14085456
 ,0.20020233,0.00002118,0.00005487,0.00002190,0.00000147,-0.00001121,-0
 .00001349,-0.00001941,-0.00001379,-0.00002681,0.00000094,-0.00000686,0
 .00000347,-0.00009353,-0.00024934,-0.00013821,0.00000562,0.00002974,-0
 .00002089,0.00012776,0.00003858,-0.00001704,-0.00000547,-0.00004409,0.
 00002127,-0.00001047,-0.00003174,-0.00000065,-0.00006892,-0.00003149,-
 0.00001900,-0.00005143,0.00000750,-0.00000744,0.00002852,-0.00002458,-
 0.00000863,0.00005421,0.00011952,0.00002866,-0.00007149,-0.00008296,0.
 00011440,-0.01158678,-0.01013530,0.00463244,0.00061091,-0.00109880,0.0
 0079770,-0.00233326,0.00147923,0.00002245,0.06020462,0.05982954,-0.088
 73129,-0.06348702,-0.06768277,0.09075572,-0.00053703,0.00014574,0.0001
 1214,-0.00005324,0.00013297,-0.00017416,0.00003269,-0.00003563,-0.0000
 4682,0.00003465,0.00001456,0.00001787,0.00176271,0.00115115,0.00036770
 ,-0.00004611,0.00007889,-0.00000121,-0.00052598,0.00008920,-0.00016455
 ,0.00004309,0.00002128,-0.00000367,-0.00006534,0.00011868,0.00019417,0
 .00003246,0.00004424,-0.00002732,0.00000747,0.00001931,0.00000094,-0.0
 0002008,0.00000609,0.00005853,-0.00000192,-0.00001781,-0.00005138,0.00
 010081,-0.00028166,-0.00007492,-0.00243232,0.03243723,0.01727665,0.001
 53187,-0.00057451,-0.00084487,0.00070766,-0.00104399,0.00085528,-0.075
 35958,0.05466096,0.02147049,0.00772947,-0.02413893,-0.01192699,0.07758
 834,0.00020246,-0.00009189,-0.00004309,0.00004552,-0.00006410,0.000065
 91,-0.00003146,0.00002510,0.00000163,-0.00003061,0.00001361,-0.0000040
 9,-0.00107487,0.00018066,-0.00018328,0.00007686,-0.00010776,0.00000614
 ,0.00019827,-0.00006419,0.00007141,-0.00003118,0.00001061,-0.00000832,
 0.00004626,-0.00005985,-0.00008391,-0.00004678,0.00000418,0.00000783,0
 .00000360,-0.00001522,0.00000419,0.00002402,-0.00002053,-0.00005073,0.
 00000551,-0.00001030,0.00008026,0.00010274,0.00025400,0.00001094,-0.00
 233357,-0.00851288,-0.00486650,0.00011735,0.00004351,0.00111221,0.0004
 6206,0.00030803,0.00003043,0.05780066,-0.28228855,-0.09118356,0.006665
 62,-0.02292229,-0.00976153,-0.06509022,0.31064578,0.00002521,-0.000003
 91,0.00005221,-0.00000382,-0.00000839,-0.00001847,0.00000307,0.0000060
 1,-0.00002961,0.00000141,-0.00000315,-0.00000867,0.00013872,0.00043205
 ,0.00057257,-0.00002261,-0.00001237,0.00001261,-0.00025479,0.00009692,
 -0.00008046,0.00000438,0.00000620,-0.00000733,-0.00000158,0.00002679,0
 .00009772,-0.00013233,0.00003336,-0.00003733,0.00001009,-0.00002097,-0
 .00000477,0.00005886,-0.00004306,-0.00000860,0.00002707,0.00002745,0.0
 0007259,0.00003385,0.00013704,-0.00002529,-0.00170191,0.01252114,0.003
 39313,0.00098684,-0.00015293,0.00011992,0.00058113,-0.00038769,0.00025
 665,0.02328424,-0.09215982,-0.09743338,-0.00473828,0.01213526,0.004496
 35,-0.02487127,0.10380914,0.10060753,0.00011074,-0.00013381,-0.0000637
 2,-0.00000695,0.00001378,0.00008204,0.00001837,-0.00002984,0.00018822,
 -0.00000624,0.00002757,0.00002316,-0.00005761,-0.00020727,-0.00016159,
 0.00007903,-0.00002490,-0.00008670,0.00009446,0.00006734,0.00001412,-0
 .00002545,-0.00002875,0.00003000,0.00002591,-0.00005114,0.00002950,-0.
 00023221,0.00003766,-0.00002735,-0.00008952,-0.00000577,-0.00000656,0.
 00010872,-0.00010243,-0.00002040,0.00004670,0.00023016,0.00023962,0.00
 014839,0.00002037,0.00022923,-0.00359038,0.00254527,-0.04396654,-0.006
 91779,0.00296360,-0.00202849,0.00188459,-0.00077688,0.00031103,-0.0576
 3772,-0.00062406,-0.00044408,0.00058057,0.00008511,0.02727827,-0.00091
 283,-0.00128336,0.00955739,0.06349575,-0.00009068,0.00002922,0.0000049
 9,-0.00000592,0.00001776,-0.00004991,-0.00001326,0.00000256,-0.0000791
 5,0.00000621,-0.00000659,0.00001418,0.00016460,-0.00010427,0.00011534,
 -0.00009332,0.00007257,-0.00001242,-0.00006532,-0.00002232,-0.00003023
 ,0.00002018,-0.00003815,-0.00000198,-0.00004309,0.00003938,-0.00000283
 ,0.00022357,-0.00008592,0.00004133,-0.00006260,0.00004504,0.00001305,-
 0.00007839,0.00003593,0.00001505,0.00009601,-0.00003891,-0.00025960,0.
 00011334,-0.00012574,0.00000342,0.00137881,-0.00121985,0.01133852,0.00
 205771,0.00016827,0.00065269,-0.00042232,0.00013391,-0.00090427,-0.001
 43570,-0.05972910,0.01016378,0.00101312,-0.00084656,0.02797702,-0.0014
 7799,0.00296294,-0.03712861,-0.00008086,0.05751018,0.00008464,-0.00006
 770,-0.00003544,-0.00003284,0.00000658,0.00002690,0.00003059,-0.000011
 93,0.00010155,0.00000275,0.00000701,0.00000347,0.00029006,0.00000456,0
 .00009619,0.00004552,-0.00001199,-0.00004622,-0.00011137,0.00007224,-0
 .00004379,-0.00000240,0.00000568,0.00000911,0.00000915,0.00000540,0.00
 006252,-0.00013622,0.00003030,-0.00004647,-0.00001599,-0.00000949,-0.0
 0002006,0.00005956,-0.00004871,0.00001111,0.00012247,0.00001401,0.0000
 7096,-0.00006831,-0.00007070,0.00022302,0.00027222,-0.00079597,-0.0143
 2399,-0.00245051,0.00036958,0.00101872,-0.00011006,-0.00019556,0.00073
 124,-0.00566144,0.01157779,-0.34174105,0.00020101,0.00035058,-0.011493
 82,0.00002466,0.00029054,-0.01259250,0.00653967,-0.01161256,0.37546647
 ,-0.02580838,0.01281730,-0.00336873,0.00069679,0.00298906,-0.00394766,
 0.00055246,-0.00169028,-0.00027618,0.00241411,0.00052984,0.00093307,-0
 .21626796,0.00522839,-0.02035823,-0.04208676,0.02181290,-0.00174398,-0
 .02282402,0.00985075,0.00240866,0.00204541,0.00026673,-0.00048301,0.00
 051312,0.00177570,0.00280146,0.00018253,0.00057293,-0.00262819,-0.0000
 5606,0.00010035,-0.00032618,0.00038118,-0.00008493,0.00022552,0.000347
 73,-0.00031207,0.00151390,0.00044618,-0.00290097,0.00040659,-0.0960982
 6,0.03417856,0.00835616,0.00279928,0.00250068,0.00223376,0.00487265,-0
 .01844434,-0.01125752,-0.01139777,0.04855325,0.01894328,0.00469923,-0.
 00118898,0.00132126,-0.00961681,0.00417113,-0.00298567,0.00288348,-0.0
 0120408,0.00090685,0.40132186,0.03488568,-0.01065620,-0.00015915,0.001
 84278,-0.00374721,0.00666954,-0.00120995,0.00158342,-0.00028154,-0.000
 34954,0.00306794,-0.00340657,0.05775095,-0.10528138,-0.00606657,-0.018
 59553,0.00990116,-0.00141738,0.03417794,-0.01140218,0.00000752,-0.0005
 6649,0.00225515,0.00309257,0.00219419,-0.00278567,-0.00678544,0.000702
 00,0.00036408,0.00215800,0.00053820,-0.00011615,-0.00060915,-0.0005848
 5,0.00042586,-0.00032980,-0.00142460,-0.00035934,-0.00043460,-0.002872
 54,0.00101404,0.00108057,-0.01452432,-0.21186883,-0.06199378,0.0056014
 7,-0.01559706,-0.01524015,0.01302114,-0.04043826,-0.02217164,0.0082548
 4,-0.02524243,-0.01040294,-0.00041815,0.00215635,-0.00036154,0.0037404
 4,-0.00029086,0.00068953,-0.00264179,0.00119965,0.00009033,-0.11952191
 ,0.40581789,-0.03120175,0.01155817,0.00185259,-0.00105636,0.00503450,-
 0.00463947,0.00051113,-0.00208035,0.00434784,0.00046920,-0.00213868,0.
 00159302,-0.00592251,-0.01204173,-0.06965200,-0.00311298,0.00037946,0.
 00116811,0.03206603,-0.01091183,0.00051444,-0.00077159,0.00127685,0.00
 175024,0.00200219,-0.00424569,-0.00551510,-0.00226234,0.00070020,-0.00
 136548,0.00019182,-0.00021656,0.00004343,0.00201142,-0.00109694,0.0001
 2016,0.00439135,-0.00160300,0.00021623,-0.00036723,0.00051281,0.001174
 26,-0.00917573,-0.06124195,-0.09308466,0.00763991,-0.04654003,-0.01143
 929,-0.00094299,0.00070718,0.00568661,-0.00107414,0.00536694,0.0047905
 6,-0.00081216,0.00027190,-0.00041710,-0.00219128,0.00069438,0.00056512
 ,0.00228316,-0.00025781,0.00252207,0.00732484,0.11587219,0.15976842||-
 0.00000658,-0.00001257,-0.00000852,0.00000172,-0.00000091,0.00000196,-
 0.00000503,0.00000155,-0.00000177,0.00000648,0.00000509,-0.00000157,-0
 .00004090,0.00001866,0.00000073,0.00002596,0.00003242,0.00000041,-0.00
 002819,-0.00004146,0.00002306,0.00001161,0.00002600,-0.00001301,0.0000
 0845,0.00000214,0.00000386,-0.00000959,0.00001179,0.00000857,-0.000001
 39,-0.00000589,-0.00001289,0.00000008,-0.00000018,0.00000352,0.0000013
 9,0.00000335,0.00000207,0.00000585,0.00000093,0.,0.00000347,0.00000680
 ,-0.00001856,-0.00000787,0.00000071,-0.00000051,0.00000400,0.00000506,
 0.00000109,0.00000128,0.00000056,0.00000943,-0.00000381,-0.00000074,-0
 .00000157,-0.00000274,0.00000250,0.00000115,0.00000699,-0.00000073,0.0
 0000468,0.00002882,-0.00005509,-0.00000214|||@


 IN THE LONG RUN, DIGGING FOR TRUTH HAS ALWAYS PROVED NOT ONLY 
 MORE INTERESTING BUT MORE PROFITABLE THAN DIGGING FOR GOLD.

                             -- GEORGE R. HARRISON
 Job cpu time:  0 days  0 hours  0 minutes 28.0 seconds.
 File lengths (MBytes):  RWF=     50 Int=      0 D2E=      0 Chk=      3 Scr=      1
 Normal termination of Gaussian 09 at Tue Dec 03 23:02:06 2024.
