 Entering Link 1 = C:\G09W\l1.exe PID=     10552.
  
 Copyright (c) 1988,1990,1992,1993,1995,1998,2003,2009, Gaussian, Inc.
                  All Rights Reserved.
  
 This is part of the Gaussian(R) 09 program.  It is based on
 the Gaussian(R) 03 system (copyright 2003, Gaussian, Inc.),
 the Gaussian(R) 98 system (copyright 1998, Gaussian, Inc.),
 the Gaussian(R) 94 system (copyright 1995, Gaussian, Inc.),
 the Gaussian 92(TM) system (copyright 1992, Gaussian, Inc.),
 the Gaussian 90(TM) system (copyright 1990, Gaussian, Inc.),
 the Gaussian 88(TM) system (copyright 1988, Gaussian, Inc.),
 the Gaussian 86(TM) system (copyright 1986, Carnegie Mellon
 University), and the Gaussian 82(TM) system (copyright 1983,
 Carnegie Mellon University). Gaussian is a federally registered
 trademark of Gaussian, Inc.
  
 This software contains proprietary and confidential information,
 including trade secrets, belonging to Gaussian, Inc.
  
 This software is provided under written license and may be
 used, copied, transmitted, or stored only in accord with that
 written license.
  
 The following legend is applicable only to US Government
 contracts under FAR:
  
                    RESTRICTED RIGHTS LEGEND
  
 Use, reproduction and disclosure by the US Government is
 subject to restrictions as set forth in subparagraphs (a)
 and (c) of the Commercial Computer Software - Restricted
 Rights clause in FAR 52.227-19.
  
 Gaussian, Inc.
 340 Quinnipiac St., Bldg. 40, Wallingford CT 06492
  
  
 ---------------------------------------------------------------
 Warning -- This program may not be used in any manner that
 competes with the business of Gaussian, Inc. or will provide
 assistance to any competitor of Gaussian, Inc.  The licensee
 of this program is prohibited from giving any competitor of
 Gaussian, Inc. access to this program.  By using this program,
 the user acknowledges that Gaussian, Inc. is engaged in the
 business of creating and licensing software in the field of
 computational chemistry and represents and warrants to the
 licensee that it is not a competitor of Gaussian, Inc. and that
 it will not use this program in any manner prohibited above.
 ---------------------------------------------------------------
  

 Cite this work as:
 Gaussian 09, Revision A.02,
 M. J. Frisch, G. W. Trucks, H. B. Schlegel, G. E. Scuseria, 
 M. A. Robb, J. R. Cheeseman, G. Scalmani, V. Barone, B. Mennucci, 
 G. A. Petersson, H. Nakatsuji, M. Caricato, X. Li, H. P. Hratchian, 
 A. F. Izmaylov, J. Bloino, G. Zheng, J. L. Sonnenberg, M. Hada, 
 M. Ehara, K. Toyota, R. Fukuda, J. Hasegawa, M. Ishida, T. Nakajima, 
 Y. Honda, O. Kitao, H. Nakai, T. Vreven, J. A. Montgomery, Jr., 
 J. E. Peralta, F. Ogliaro, M. Bearpark, J. J. Heyd, E. Brothers, 
 K. N. Kudin, V. N. Staroverov, R. Kobayashi, J. Normand, 
 K. Raghavachari, A. Rendell, J. C. Burant, S. S. Iyengar, J. Tomasi, 
 M. Cossi, N. Rega, J. M. Millam, M. Klene, J. E. Knox, J. B. Cross, 
 V. Bakken, C. Adamo, J. Jaramillo, R. Gomperts, R. E. Stratmann, 
 O. Yazyev, A. J. Austin, R. Cammi, C. Pomelli, J. W. Ochterski, 
 R. L. Martin, K. Morokuma, V. G. Zakrzewski, G. A. Voth, 
 P. Salvador, J. J. Dannenberg, S. Dapprich, A. D. Daniels, 
 O. Farkas, J. B. Foresman, J. V. Ortiz, J. Cioslowski, 
 and D. J. Fox, Gaussian, Inc., Wallingford CT, 2009.
 
 ******************************************
 Gaussian 09:  IA32W-G09RevA.02 11-Jun-2009
                03-Dec-2024 
 ******************************************
 %chk=C:\G09W\ethoxide\optfreqo.chk
 -------------------------------------
 # opt freq hf/3-21g geom=connectivity
 -------------------------------------
 1/18=20,19=15,38=1,57=2/1,3;
 2/9=110,12=2,17=6,18=5,40=1/2;
 3/5=5,11=9,16=1,25=1,30=1,71=1/1,2,3;
 4//1;
 5/5=2,38=5/2;
 6/7=2,8=2,9=2,10=2,28=1/1;
 7//1,2,3,16;
 1/18=20,19=15/3(2);
 2/9=110/2;
 99//99;
 2/9=110/2;
 3/5=5,11=9,16=1,25=1,30=1,71=1/1,2,3;
 4/5=5,16=3/1;
 5/5=2,38=5/2;
 7//1,2,3,16;
 1/18=20,19=15/3(-5);
 2/9=110/2;
 6/7=2,8=2,9=2,10=2,19=2,28=1/1;
 99/9=1/99;
 -------------------
 Title Card Required
 -------------------
 Symbolic Z-matrix:
 Charge = -1 Multiplicity = 1
 C                    -3.20536   0.35714   0. 
 H                    -2.8487   -0.65167   0. 
 H                    -2.84868   0.86154   0.87365 
 H                    -4.27536   0.35716   0. 
 C                    -2.69201   1.0831   -1.2574 
 H                    -3.04867   2.09191  -1.25741 
 C                    -3.20536   0.35714  -2.51481 
 H                    -4.27536   0.35715  -2.51481 
 H                    -2.8487   -0.65167  -2.51481 
 C                    -2.69201   1.0831   -3.77221 
 H                    -1.62201   1.08478  -3.77124 
 H                    -3.04709   0.57757  -4.64586 
 H                    -3.05026   2.09134  -3.77319 
 Br                   -0.78201   1.08308  -1.2574 
 C                    -6.15383   2.35708  -1.09996 
 H                    -5.63789   2.92003  -0.35043 
 H                    -6.12298   2.88748  -2.02873 
 C                    -7.61948   2.1554   -0.67242 
 H                    -7.65038   1.6233    0.25538 
 H                    -8.0905    3.10867  -0.55273 
 H                    -8.13591   1.59411  -1.42286 
 O                    -5.52362   1.08313  -1.25741 
 

 GradGradGradGradGradGradGradGradGradGradGradGradGradGradGradGradGradGrad
 Berny optimization.
 Initialization pass.
                           ----------------------------
                           !    Initial Parameters    !
                           ! (Angstroms and Degrees)  !
 --------------------------                            --------------------------
 ! Name  Definition              Value          Derivative Info.                !
 --------------------------------------------------------------------------------
 ! R1    R(1,2)                  1.07           estimate D2E/DX2                !
 ! R2    R(1,3)                  1.07           estimate D2E/DX2                !
 ! R3    R(1,4)                  1.07           estimate D2E/DX2                !
 ! R4    R(1,5)                  1.54           estimate D2E/DX2                !
 ! R5    R(4,22)                 1.9147         estimate D2E/DX2                !
 ! R6    R(5,6)                  1.07           estimate D2E/DX2                !
 ! R7    R(5,7)                  1.54           estimate D2E/DX2                !
 ! R8    R(5,14)                 1.91           estimate D2E/DX2                !
 ! R9    R(7,8)                  1.07           estimate D2E/DX2                !
 ! R10   R(7,9)                  1.07           estimate D2E/DX2                !
 ! R11   R(7,10)                 1.54           estimate D2E/DX2                !
 ! R12   R(8,22)                 1.9147         estimate D2E/DX2                !
 ! R13   R(10,11)                1.07           estimate D2E/DX2                !
 ! R14   R(10,12)                1.07           estimate D2E/DX2                !
 ! R15   R(10,13)                1.07           estimate D2E/DX2                !
 ! R16   R(15,16)                1.07           estimate D2E/DX2                !
 ! R17   R(15,17)                1.07           estimate D2E/DX2                !
 ! R18   R(15,18)                1.54           estimate D2E/DX2                !
 ! R19   R(15,22)                1.43           estimate D2E/DX2                !
 ! R20   R(18,19)                1.07           estimate D2E/DX2                !
 ! R21   R(18,20)                1.07           estimate D2E/DX2                !
 ! R22   R(18,21)                1.07           estimate D2E/DX2                !
 ! A1    A(2,1,3)              109.4712         estimate D2E/DX2                !
 ! A2    A(2,1,4)              109.4712         estimate D2E/DX2                !
 ! A3    A(2,1,5)              109.4712         estimate D2E/DX2                !
 ! A4    A(3,1,4)              109.4712         estimate D2E/DX2                !
 ! A5    A(3,1,5)              109.4713         estimate D2E/DX2                !
 ! A6    A(4,1,5)              109.4712         estimate D2E/DX2                !
 ! A7    A(1,4,22)             130.6867         estimate D2E/DX2                !
 ! A8    A(1,5,6)              109.4712         estimate D2E/DX2                !
 ! A9    A(1,5,7)              109.4712         estimate D2E/DX2                !
 ! A10   A(1,5,14)             109.4712         estimate D2E/DX2                !
 ! A11   A(6,5,7)              109.4713         estimate D2E/DX2                !
 ! A12   A(6,5,14)             109.4712         estimate D2E/DX2                !
 ! A13   A(7,5,14)             109.4712         estimate D2E/DX2                !
 ! A14   A(5,7,8)              109.4712         estimate D2E/DX2                !
 ! A15   A(5,7,9)              109.4712         estimate D2E/DX2                !
 ! A16   A(5,7,10)             109.4712         estimate D2E/DX2                !
 ! A17   A(8,7,9)              109.4712         estimate D2E/DX2                !
 ! A18   A(8,7,10)             109.4713         estimate D2E/DX2                !
 ! A19   A(9,7,10)             109.4712         estimate D2E/DX2                !
 ! A20   A(7,8,22)             130.6867         estimate D2E/DX2                !
 ! A21   A(7,10,11)            109.4712         estimate D2E/DX2                !
 ! A22   A(7,10,12)            109.4712         estimate D2E/DX2                !
 ! A23   A(7,10,13)            109.4712         estimate D2E/DX2                !
 ! A24   A(11,10,12)           109.4713         estimate D2E/DX2                !
 ! A25   A(11,10,13)           109.4712         estimate D2E/DX2                !
 ! A26   A(12,10,13)           109.4712         estimate D2E/DX2                !
 ! A27   A(16,15,17)           109.4713         estimate D2E/DX2                !
 ! A28   A(16,15,18)           109.4712         estimate D2E/DX2                !
 ! A29   A(16,15,22)           109.4712         estimate D2E/DX2                !
 ! A30   A(17,15,18)           109.4712         estimate D2E/DX2                !
 ! A31   A(17,15,22)           109.4712         estimate D2E/DX2                !
 ! A32   A(18,15,22)           109.4712         estimate D2E/DX2                !
 ! A33   A(15,18,19)           109.4712         estimate D2E/DX2                !
 ! A34   A(15,18,20)           109.4712         estimate D2E/DX2                !
 ! A35   A(15,18,21)           109.4712         estimate D2E/DX2                !
 ! A36   A(19,18,20)           109.4713         estimate D2E/DX2                !
 ! A37   A(19,18,21)           109.4712         estimate D2E/DX2                !
 ! A38   A(20,18,21)           109.4712         estimate D2E/DX2                !
 ! A39   A(4,22,8)              82.0966         estimate D2E/DX2                !
 ! A40   A(4,22,15)            123.5575         estimate D2E/DX2                !
 ! A41   A(8,22,15)            134.2176         estimate D2E/DX2                !
 ! D1    D(2,1,4,22)          -119.9998         estimate D2E/DX2                !
 ! D2    D(3,1,4,22)           120.0002         estimate D2E/DX2                !
 ! D3    D(5,1,4,22)             0.0002         estimate D2E/DX2                !
 ! D4    D(2,1,5,6)            179.9999         estimate D2E/DX2                !
 ! D5    D(2,1,5,7)             59.9999         estimate D2E/DX2                !
 ! D6    D(2,1,5,14)           -60.0001         estimate D2E/DX2                !
 ! D7    D(3,1,5,6)            -60.0001         estimate D2E/DX2                !
 ! D8    D(3,1,5,7)            179.9999         estimate D2E/DX2                !
 ! D9    D(3,1,5,14)            59.9999         estimate D2E/DX2                !
 ! D10   D(4,1,5,6)             59.9999         estimate D2E/DX2                !
 ! D11   D(4,1,5,7)            -60.0001         estimate D2E/DX2                !
 ! D12   D(4,1,5,14)           179.9999         estimate D2E/DX2                !
 ! D13   D(1,4,22,8)            41.5283         estimate D2E/DX2                !
 ! D14   D(1,4,22,15)          -97.3057         estimate D2E/DX2                !
 ! D15   D(1,5,7,8)             60.0001         estimate D2E/DX2                !
 ! D16   D(1,5,7,9)            -59.9999         estimate D2E/DX2                !
 ! D17   D(1,5,7,10)          -179.9999         estimate D2E/DX2                !
 ! D18   D(6,5,7,8)            -59.9999         estimate D2E/DX2                !
 ! D19   D(6,5,7,9)           -179.9999         estimate D2E/DX2                !
 ! D20   D(6,5,7,10)            60.0001         estimate D2E/DX2                !
 ! D21   D(14,5,7,8)          -179.9999         estimate D2E/DX2                !
 ! D22   D(14,5,7,9)            60.0001         estimate D2E/DX2                !
 ! D23   D(14,5,7,10)          -59.9999         estimate D2E/DX2                !
 ! D24   D(5,7,8,22)            -0.0001         estimate D2E/DX2                !
 ! D25   D(9,7,8,22)           119.9999         estimate D2E/DX2                !
 ! D26   D(10,7,8,22)         -120.0001         estimate D2E/DX2                !
 ! D27   D(5,7,10,11)           59.889          estimate D2E/DX2                !
 ! D28   D(5,7,10,12)          179.889          estimate D2E/DX2                !
 ! D29   D(5,7,10,13)          -60.111          estimate D2E/DX2                !
 ! D30   D(8,7,10,11)          179.889          estimate D2E/DX2                !
 ! D31   D(8,7,10,12)          -60.111          estimate D2E/DX2                !
 ! D32   D(8,7,10,13)           59.889          estimate D2E/DX2                !
 ! D33   D(9,7,10,11)          -60.111          estimate D2E/DX2                !
 ! D34   D(9,7,10,12)           59.889          estimate D2E/DX2                !
 ! D35   D(9,7,10,13)          179.889          estimate D2E/DX2                !
 ! D36   D(7,8,22,4)           -41.5284         estimate D2E/DX2                !
 ! D37   D(7,8,22,15)           88.5321         estimate D2E/DX2                !
 ! D38   D(16,15,18,19)        -60.1111         estimate D2E/DX2                !
 ! D39   D(16,15,18,20)         59.8889         estimate D2E/DX2                !
 ! D40   D(16,15,18,21)        179.8889         estimate D2E/DX2                !
 ! D41   D(17,15,18,19)        179.8889         estimate D2E/DX2                !
 ! D42   D(17,15,18,20)        -60.1111         estimate D2E/DX2                !
 ! D43   D(17,15,18,21)         59.8889         estimate D2E/DX2                !
 ! D44   D(22,15,18,19)         59.8889         estimate D2E/DX2                !
 ! D45   D(22,15,18,20)        179.8889         estimate D2E/DX2                !
 ! D46   D(22,15,18,21)        -60.1111         estimate D2E/DX2                !
 ! D47   D(16,15,22,4)          14.9338         estimate D2E/DX2                !
 ! D48   D(16,15,22,8)         -99.5998         estimate D2E/DX2                !
 ! D49   D(17,15,22,4)         134.9339         estimate D2E/DX2                !
 ! D50   D(17,15,22,8)          20.4002         estimate D2E/DX2                !
 ! D51   D(18,15,22,4)        -105.0661         estimate D2E/DX2                !
 ! D52   D(18,15,22,8)         140.4002         estimate D2E/DX2                !
 --------------------------------------------------------------------------------
 Trust Radius=3.00D-01 FncErr=1.00D-07 GrdErr=1.00D-07
 Number of steps in this run= 125 maximum allowed number of steps= 132.
 GradGradGradGradGradGradGradGradGradGradGradGradGradGradGradGradGradGrad

                          Input orientation:                          
 ---------------------------------------------------------------------
 Center     Atomic      Atomic             Coordinates (Angstroms)
 Number     Number       Type             X           Y           Z
 ---------------------------------------------------------------------
      1          6           0       -3.205357    0.357143    0.000000
      2          1           0       -2.848703   -0.651667    0.000000
      3          1           0       -2.848684    0.861541    0.873652
      4          1           0       -4.275357    0.357156    0.000000
      5          6           0       -2.692015    1.083099   -1.257405
      6          1           0       -3.048671    2.091909   -1.257406
      7          6           0       -3.205355    0.357140   -2.514809
      8          1           0       -4.275355    0.357153   -2.514810
      9          1           0       -2.848700   -0.651670   -2.514807
     10          6           0       -2.692011    1.083095   -3.772214
     11          1           0       -1.622013    1.084776   -3.771236
     12          1           0       -3.047086    0.577568   -4.645864
     13          1           0       -3.050261    2.091340   -3.773194
     14         35           0       -0.782015    1.083079   -1.257404
     15          6           0       -6.153830    2.357076   -1.099959
     16          1           0       -5.637894    2.920028   -0.350429
     17          1           0       -6.122980    2.887481   -2.028731
     18          6           0       -7.619483    2.155401   -0.672424
     19          1           0       -7.650383    1.623298    0.255376
     20          1           0       -8.090499    3.108668   -0.552734
     21          1           0       -8.135912    1.594110   -1.422860
     22          8           0       -5.523615    1.083129   -1.257407
 ---------------------------------------------------------------------
                    Distance matrix (angstroms):
                    1          2          3          4          5
     1  C    0.000000
     2  H    1.070000   0.000000
     3  H    1.070000   1.747302   0.000000
     4  H    1.070000   1.747303   1.747303   0.000000
     5  C    1.540000   2.148263   2.148263   2.148263   0.000000
     6  H    2.148263   3.024610   2.468847   2.468845   1.070000
     7  C    2.514809   2.732976   3.444314   2.732978   1.540000
     8  H    2.732977   3.062242   3.710993   2.514810   2.148263
     9  H    2.732977   2.514807   3.710992   3.062244   2.148263
    10  C    3.875581   4.154943   4.653783   4.154945   2.514809
    11  H    4.154353   4.329228   4.809317   4.668178   2.732078
    12  H    4.653782   4.809826   5.530376   4.810539   3.444313
    13  H    4.155537   4.669229   4.811051   4.329578   2.733877
    14  Br   2.825002   2.976845   2.976844   3.783050   1.910000
    15  C    3.728690   4.602859   4.129860   2.956053   3.692149
    16  H    3.550833   4.545261   3.676334   2.923631   3.588191
    17  H    4.362441   5.230891   4.821750   3.732561   3.952501
    18  C    4.813564   5.576032   5.179281   3.856037   5.076611
    19  H    4.628890   5.319475   4.900903   3.613742   5.212076
    20  H    5.633917   6.474725   5.878841   4.736205   5.808883
    21  H    5.278730   5.917992   5.810801   4.296333   5.470332
    22  O    2.735407   3.427207   3.427210   1.914747   2.831600
                    6          7          8          9         10
     6  H    0.000000
     7  C    2.148263   0.000000
     8  H    2.468846   1.070000   0.000000
     9  H    3.024611   1.070000   1.747303   0.000000
    10  C    2.732978   1.540000   2.148263   2.148263   0.000000
    11  H    3.060884   2.148263   3.024610   2.469537   1.070000
    12  H    3.711452   2.148263   2.469538   2.468154   1.070000
    13  H    2.515789   2.148263   2.468155   3.024610   1.070000
    14  Br   2.481021   2.825001   3.783050   2.976845   3.157904
    15  C    3.120435   3.833412   3.087097   4.688094   4.555015
    16  H    2.865740   4.143692   3.620689   5.022067   4.874542
    17  H    3.267913   3.892485   3.170577   4.845903   4.250540
    18  C    4.608532   5.110054   4.220341   5.833900   5.919334
    19  H    4.866606   5.388446   4.546193   5.992124   6.410830
    20  H    5.191377   5.940141   5.096656   6.742872   6.603913
    21  H    5.114216   5.199312   4.198371   5.847264   5.951190
    22  O    2.672637   2.735407   1.914748   3.427208   3.787115
                   11         12         13         14         15
    11  H    0.000000
    12  H    1.747303   0.000000
    13  H    1.747303   1.747303   0.000000
    14  Br   2.650462   4.107037   3.534223   0.000000
    15  C    5.412193   5.039042   4.104746   5.523065   0.000000
    16  H    5.585461   5.536259   4.370113   5.270346   1.070000
    17  H    5.152162   4.652548   3.621960   5.690055   1.070000
    18  C    6.835095   6.259760   5.522379   6.945722   1.540000
    19  H    7.269446   6.804854   6.132663   7.053709   2.148263
    20  H    7.503079   6.971096   6.067150   7.616660   2.148263
    21  H    6.942995   6.108786   5.624514   7.373489   2.148263
    22  O    4.641318   4.227343   3.669217   4.741600   1.430000
                   16         17         18         19         20
    16  H    0.000000
    17  H    1.747303   0.000000
    18  C    2.148263   2.148263   0.000000
    19  H    2.469538   3.024609   1.070000   0.000000
    20  H    2.468154   2.469538   1.070000   1.747303   0.000000
    21  H    3.024610   2.468154   1.070000   1.747303   1.747303
    22  O    2.051796   2.051796   2.425826   2.665227   3.344886
                   21         22
    21  H    0.000000
    22  O    2.666941   0.000000
 Stoichiometry    C6H14BrO(1-)
 Framework group  C1[X(C6H14BrO)]
 Deg. of freedom    60
 Full point group                 C1      NOp   1
 Largest Abelian subgroup         C1      NOp   1
 Largest concise Abelian subgroup C1      NOp   1
                         Standard orientation:                         
 ---------------------------------------------------------------------
 Center     Atomic      Atomic             Coordinates (Angstroms)
 Number     Number       Type             X           Y           Z
 ---------------------------------------------------------------------
      1          6           0        0.101327   -1.393761    0.854235
      2          1           0       -0.407689   -1.418884    1.795070
      3          1           0       -0.091570   -2.300575    0.320026
      4          1           0        1.153670   -1.294766    1.020591
      5          6           0       -0.403029   -0.194948    0.029570
      6          1           0        0.105989   -0.169824   -0.911264
      7          6           0       -0.125403    1.110185    0.798435
      8          1           0        0.926939    1.209181    0.964791
      9          1           0       -0.634420    1.085060    1.739269
     10          6           0       -0.629761    2.308998   -0.026230
     11          1           0       -1.681748    2.209015   -0.194236
     12          1           0       -0.438612    3.215671    0.508846
     13          1           0       -0.119352    2.335248   -0.966280
     14         35           0       -2.281509   -0.371661   -0.267387
     15          6           0        3.215692   -0.041374   -0.686841
     16          1           0        2.864155   -0.839794   -1.306394
     17          1           0        3.184819    0.876392   -1.236069
     18          6           0        4.664066   -0.329887   -0.250294
     19          1           0        4.694634   -1.246667    0.300596
     20          1           0        5.287634   -0.412922   -1.115839
     21          1           0        5.016267    0.469468    0.367675
     22          8           0        2.381844    0.067031    0.469812
 ---------------------------------------------------------------------
 Rotational constants (GHZ):      2.5633112      0.4895488      0.4449564
 Standard basis: 3-21G (6D, 7F)
 There are   114 symmetry adapted basis functions of A   symmetry.
 Integral buffers will be    262144 words long.
 Raffenetti 1 integral format.
 Two-electron integral symmetry is turned on.
   114 basis functions,   204 primitive gaussians,   114 cartesian basis functions
    47 alpha electrons       47 beta electrons
       nuclear repulsion energy       615.0907223462 Hartrees.
 NAtoms=   22 NActive=   22 NUniq=   22 SFac= 7.50D-01 NAtFMM=   80 NAOKFM=F Big=F
 One-electron integrals computed using PRISM.
 NBasis=   114 RedAO= T  NBF=   114
 NBsUse=   114 1.00D-06 NBFU=   114
 Harris functional with IExCor=  205 diagonalized for initial guess.
 ExpMin= 1.65D-01 ExpMax= 6.10D+03 ExpMxC= 6.10D+03 IAcc=1 IRadAn=         1 AccDes= 0.00D+00
 HarFok:  IExCor=  205 AccDes= 0.00D+00 IRadAn=         1 IDoV= 1
 ScaDFX=  1.000000  1.000000  1.000000  1.000000
 FoFCou: FMM=F IPFlag=           0 FMFlag=      100000 FMFlg1=           0
         NFxFlg=           0 DoJE=T BraDBF=F KetDBF=T FulRan=T
         Omega=  0.000000  0.000000  1.000000  0.000000  0.000000 ICntrl=     500 IOpCl=  0
         NMat0=    1 NMatS0=    1 NMatT0=    0 NMatD0=    1 NMtDS0=    0 NMtDT0=    0
         I1Cent=           4 NGrid=           0.
 Petite list used in FoFCou.
 Initial guess orbital symmetries:
       Occupied  (A) (A) (A) (A) (A) (A) (A) (A) (A) (A) (A) (A)
                 (A) (A) (A) (A) (A) (A) (A) (A) (A) (A) (A) (A)
                 (A) (A) (A) (A) (A) (A) (A) (A) (A) (A) (A) (A)
                 (A) (A) (A) (A) (A) (A) (A) (A) (A) (A) (A)
       Virtual   (A) (A) (A) (A) (A) (A) (A) (A) (A) (A) (A) (A)
                 (A) (A) (A) (A) (A) (A) (A) (A) (A) (A) (A) (A)
                 (A) (A) (A) (A) (A) (A) (A) (A) (A) (A) (A) (A)
                 (A) (A) (A) (A) (A) (A) (A) (A) (A) (A) (A) (A)
                 (A) (A) (A) (A) (A) (A) (A) (A) (A) (A) (A) (A)
                 (A) (A) (A) (A) (A) (A) (A)
 The electronic state of the initial guess is 1-A.
 Requested convergence on RMS density matrix=1.00D-08 within 128 cycles.
 Requested convergence on MAX density matrix=1.00D-06.
 Requested convergence on             energy=1.00D-06.
 No special actions if energy rises.
 Keep R1 ints in memory in canonical form, NReq=22365846.
 SCF Done:  E(RHF) =  -2868.49505203     A.U. after   13 cycles
             Convg  =    0.2258D-08             -V/T =  1.9969

 **********************************************************************

            Population analysis using the SCF density.

 **********************************************************************

 Orbital symmetries:
       Occupied  (A) (A) (A) (A) (A) (A) (A) (A) (A) (A) (A) (A)
                 (A) (A) (A) (A) (A) (A) (A) (A) (A) (A) (A) (A)
                 (A) (A) (A) (A) (A) (A) (A) (A) (A) (A) (A) (A)
                 (A) (A) (A) (A) (A) (A) (A) (A) (A) (A) (A)
       Virtual   (A) (A) (A) (A) (A) (A) (A) (A) (A) (A) (A) (A)
                 (A) (A) (A) (A) (A) (A) (A) (A) (A) (A) (A) (A)
                 (A) (A) (A) (A) (A) (A) (A) (A) (A) (A) (A) (A)
                 (A) (A) (A) (A) (A) (A) (A) (A) (A) (A) (A) (A)
                 (A) (A) (A) (A) (A) (A) (A) (A) (A) (A) (A) (A)
                 (A) (A) (A) (A) (A) (A) (A)
 The electronic state is 1-A.
 Alpha  occ. eigenvalues -- -486.60611 -64.62069 -57.80723 -57.80563 -57.80554
 Alpha  occ. eigenvalues --  -20.07673 -11.06585 -11.00495 -10.99113 -10.98647
 Alpha  occ. eigenvalues --  -10.97897 -10.97226  -9.61308  -7.19345  -7.18443
 Alpha  occ. eigenvalues --   -7.18431  -2.92276  -2.91879  -2.91870  -2.90883
 Alpha  occ. eigenvalues --   -2.90883  -0.98038  -0.95935  -0.85903  -0.80993
 Alpha  occ. eigenvalues --   -0.79896  -0.71445  -0.62905  -0.61979  -0.48885
 Alpha  occ. eigenvalues --   -0.45616  -0.44465  -0.43800  -0.42025  -0.39757
 Alpha  occ. eigenvalues --   -0.37581  -0.35353  -0.33857  -0.33657  -0.32788
 Alpha  occ. eigenvalues --   -0.31052  -0.30044  -0.24418  -0.23860  -0.21635
 Alpha  occ. eigenvalues --   -0.10555  -0.10307
 Alpha virt. eigenvalues --    0.34821   0.42600   0.44587   0.45541   0.46303
 Alpha virt. eigenvalues --    0.48320   0.49733   0.50124   0.50991   0.51345
 Alpha virt. eigenvalues --    0.51879   0.53787   0.56437   0.57130   0.58413
 Alpha virt. eigenvalues --    0.59079   0.59611   0.62527   0.63713   0.71475
 Alpha virt. eigenvalues --    0.95659   0.98133   0.99400   1.01263   1.05987
 Alpha virt. eigenvalues --    1.06570   1.09421   1.14574   1.15717   1.16494
 Alpha virt. eigenvalues --    1.17439   1.18339   1.21620   1.23092   1.23778
 Alpha virt. eigenvalues --    1.25744   1.27324   1.33483   1.33613   1.37050
 Alpha virt. eigenvalues --    1.43229   1.46984   1.51642   1.53082   1.53618
 Alpha virt. eigenvalues --    1.54316   1.54599   1.55143   1.55996   1.58301
 Alpha virt. eigenvalues --    1.59269   1.60283   1.62688   1.64989   1.68308
 Alpha virt. eigenvalues --    1.75789   2.04739   2.10161   2.29136   2.35459
 Alpha virt. eigenvalues --    2.40531   2.47410   2.50732   2.55061   2.72958
 Alpha virt. eigenvalues --    3.63953  24.72128
          Condensed to atoms (all electrons):
              1          2          3          4          5          6
     1  C    5.605452   0.358896   0.367336   0.243210   0.230016  -0.034019
     2  H    0.358896   0.584173  -0.031105  -0.012855  -0.058168   0.003355
     3  H    0.367336  -0.031105   0.580147  -0.014146  -0.055320  -0.002067
     4  H    0.243210  -0.012855  -0.014146   0.410621  -0.030029  -0.001197
     5  C    0.230016  -0.058168  -0.055320  -0.030029   5.836325   0.368780
     6  H   -0.034019   0.003355  -0.002067  -0.001197   0.368780   0.448639
     7  C   -0.073955  -0.002068   0.004229   0.003314   0.219886  -0.037829
     8  H    0.002726  -0.000265   0.000055  -0.004669  -0.028953  -0.000413
     9  H   -0.000856   0.002838  -0.000054  -0.000325  -0.058584   0.003553
    10  C    0.004107  -0.000054  -0.000096   0.000083  -0.098813  -0.002370
    11  H    0.000031   0.000004   0.000001  -0.000004  -0.003023   0.000170
    12  H   -0.000064   0.000001   0.000001  -0.000001   0.004543  -0.000046
    13  H   -0.000029   0.000002   0.000001  -0.000006  -0.002802   0.002947
    14  Br  -0.087132   0.002746   0.001517   0.002383   0.171655  -0.036748
    15  C    0.002216   0.000024  -0.000064  -0.006502  -0.001220   0.001765
    16  H    0.001925  -0.000027  -0.000008  -0.003838  -0.000128  -0.000620
    17  H   -0.000384   0.000001   0.000004   0.001203   0.000161  -0.000264
    18  C    0.000002   0.000001   0.000002  -0.000216   0.000048   0.000053
    19  H   -0.000091   0.000000   0.000001   0.000576   0.000000  -0.000001
    20  H    0.000000   0.000000   0.000000   0.000002  -0.000001  -0.000002
    21  H    0.000006   0.000000   0.000000  -0.000050  -0.000001   0.000000
    22  O   -0.045476   0.000660   0.000420   0.088487   0.007778   0.005466
              7          8          9         10         11         12
     1  C   -0.073955   0.002726  -0.000856   0.004107   0.000031  -0.000064
     2  H   -0.002068  -0.000265   0.002838  -0.000054   0.000004   0.000001
     3  H    0.004229   0.000055  -0.000054  -0.000096   0.000001   0.000001
     4  H    0.003314  -0.004669  -0.000325   0.000083  -0.000004  -0.000001
     5  C    0.219886  -0.028953  -0.058584  -0.098813  -0.003023   0.004543
     6  H   -0.037829  -0.000413   0.003553  -0.002370   0.000170  -0.000046
     7  C    5.682800   0.265074   0.361820   0.244364  -0.045343  -0.042360
     8  H    0.265074   0.389772  -0.011771  -0.026945   0.001676  -0.001114
     9  H    0.361820  -0.011771   0.587128  -0.048217  -0.002481  -0.001921
    10  C    0.244364  -0.026945  -0.048217   5.420119   0.369814   0.377753
    11  H   -0.045343   0.001676  -0.002481   0.369814   0.539399  -0.027963
    12  H   -0.042360  -0.001114  -0.001921   0.377753  -0.027963   0.554102
    13  H   -0.047948  -0.000557   0.003955   0.377817  -0.030184  -0.027279
    14  Br  -0.088715   0.002232   0.003640  -0.014534   0.007562   0.000219
    15  C    0.002293  -0.005418   0.000013  -0.000115   0.000000   0.000000
    16  H   -0.000450   0.001146   0.000000   0.000006   0.000000   0.000000
    17  H    0.000719  -0.002383  -0.000008   0.000056   0.000001   0.000000
    18  C   -0.000047   0.000227   0.000001   0.000000   0.000000   0.000000
    19  H    0.000003  -0.000023   0.000000   0.000000   0.000000   0.000000
    20  H    0.000001  -0.000005   0.000000   0.000000   0.000000   0.000000
    21  H   -0.000011   0.000092   0.000000   0.000000   0.000000   0.000000
    22  O   -0.039715   0.080901   0.000752   0.000100  -0.000010  -0.000007
             13         14         15         16         17         18
     1  C   -0.000029  -0.087132   0.002216   0.001925  -0.000384   0.000002
     2  H    0.000002   0.002746   0.000024  -0.000027   0.000001   0.000001
     3  H    0.000001   0.001517  -0.000064  -0.000008   0.000004   0.000002
     4  H   -0.000006   0.002383  -0.006502  -0.003838   0.001203  -0.000216
     5  C   -0.002802   0.171655  -0.001220  -0.000128   0.000161   0.000048
     6  H    0.002947  -0.036748   0.001765  -0.000620  -0.000264   0.000053
     7  C   -0.047948  -0.088715   0.002293  -0.000450   0.000719  -0.000047
     8  H   -0.000557   0.002232  -0.005418   0.001146  -0.002383   0.000227
     9  H    0.003955   0.003640   0.000013   0.000000  -0.000008   0.000001
    10  C    0.377817  -0.014534  -0.000115   0.000006   0.000056   0.000000
    11  H   -0.030184   0.007562   0.000000   0.000000   0.000001   0.000000
    12  H   -0.027279   0.000219   0.000000   0.000000   0.000000   0.000000
    13  H    0.534149   0.000859   0.000079  -0.000003  -0.000018   0.000001
    14  Br   0.000859  35.092102   0.000021  -0.000018  -0.000001   0.000000
    15  C    0.000079   0.000021   4.976614   0.324068   0.327794   0.169475
    16  H   -0.000003  -0.000018   0.324068   0.798438  -0.073451  -0.078056
    17  H   -0.000018  -0.000001   0.327794  -0.073451   0.789482  -0.078030
    18  C    0.000001   0.000000   0.169475  -0.078056  -0.078030   5.647495
    19  H    0.000000   0.000000  -0.036600  -0.006870   0.005859   0.365951
    20  H    0.000000   0.000000  -0.029834   0.004674   0.004746   0.275217
    21  H    0.000000   0.000000  -0.036825   0.005869  -0.006672   0.366650
    22  O    0.000237   0.000132   0.325957  -0.049748  -0.047593  -0.063103
             19         20         21         22
     1  C   -0.000091   0.000000   0.000006  -0.045476
     2  H    0.000000   0.000000   0.000000   0.000660
     3  H    0.000001   0.000000   0.000000   0.000420
     4  H    0.000576   0.000002  -0.000050   0.088487
     5  C    0.000000  -0.000001  -0.000001   0.007778
     6  H   -0.000001  -0.000002   0.000000   0.005466
     7  C    0.000003   0.000001  -0.000011  -0.039715
     8  H   -0.000023  -0.000005   0.000092   0.080901
     9  H    0.000000   0.000000   0.000000   0.000752
    10  C    0.000000   0.000000   0.000000   0.000100
    11  H    0.000000   0.000000   0.000000  -0.000010
    12  H    0.000000   0.000000   0.000000  -0.000007
    13  H    0.000000   0.000000   0.000000   0.000237
    14  Br   0.000000   0.000000   0.000000   0.000132
    15  C   -0.036600  -0.029834  -0.036825   0.325957
    16  H   -0.006870   0.004674   0.005869  -0.049748
    17  H    0.005859   0.004746  -0.006672  -0.047593
    18  C    0.365951   0.275217   0.366650  -0.063103
    19  H    0.563251  -0.031320  -0.031679   0.003274
    20  H   -0.031320   0.699311  -0.031673   0.002648
    21  H   -0.031679  -0.031673   0.563325   0.003279
    22  O    0.003274   0.002648   0.003279   8.508693
 Mulliken atomic charges:
              1
     1  C   -0.573918
     2  H    0.151842
     3  H    0.149148
     4  H    0.323957
     5  C   -0.502151
     6  H    0.280850
     7  C   -0.406062
     8  H    0.338616
     9  H    0.160517
    10  C   -0.603074
    11  H    0.190351
    12  H    0.164140
    13  H    0.188779
    14  Br  -0.057918
    15  C   -0.013739
    16  H    0.077091
    17  H    0.078779
    18  C   -0.605670
    19  H    0.167668
    20  H    0.106237
    21  H    0.167689
    22  O   -0.783130
 Sum of Mulliken atomic charges =  -1.00000
 Mulliken charges with hydrogens summed into heavy atoms:
              1
     1  C    0.051028
     5  C   -0.221301
     7  C    0.093071
    10  C   -0.059804
    14  Br  -0.057918
    15  C    0.142131
    18  C   -0.164077
    22  O   -0.783130
 Sum of Mulliken charges with hydrogens summed into heavy atoms =  -1.00000
 Electronic spatial extent (au):  <R**2>=           2493.4661
 Charge=             -1.0000 electrons
 Dipole moment (field-independent basis, Debye):
    X=             -6.0123    Y=              0.1400    Z=             -1.1533  Tot=              6.1235
 Quadrupole moment (field-independent basis, Debye-Ang):
   XX=           -107.2202   YY=            -71.8641   ZZ=            -70.4682
   XY=             -0.3667   XZ=             -2.6771   YZ=              0.1861
 Traceless Quadrupole moment (field-independent basis, Debye-Ang):
   XX=            -24.0361   YY=             11.3200   ZZ=             12.7160
   XY=             -0.3667   XZ=             -2.6771   YZ=              0.1861
 Octapole moment (field-independent basis, Debye-Ang**2):
  XXX=           -172.9166  YYY=            -16.3173  ZZZ=             -5.6773  XYY=            -20.8872
  XXY=              2.6569  XXZ=             -0.1889  XZZ=            -29.0280  YZZ=             -3.3551
  YYZ=             -1.1421  XYZ=             -0.8645
 Hexadecapole moment (field-independent basis, Debye-Ang**3):
 XXXX=          -2941.4972 YYYY=           -558.8350 ZZZZ=           -220.9530 XXXY=             57.6221
 XXXZ=             54.6908 YYYX=             35.8816 YYYZ=             10.0247 ZZZX=             31.1100
 ZZZY=              3.2707 XXYY=           -502.3307 XXZZ=           -464.1221 YYZZ=           -127.5463
 XXYZ=             -2.2300 YYXZ=             13.5474 ZZXY=             10.8419
 N-N= 6.150907223462D+02 E-N=-8.107078868751D+03  KE= 2.877391820511D+03
 Calling FoFJK, ICntrl=      2127 FMM=F ISym2X=0 I1Cent= 0 IOpClX= 0 NMat=1 NMatS=1 NMatT=0.
 ***** Axes restored to original set *****
 -------------------------------------------------------------------
 Center     Atomic                   Forces (Hartrees/Bohr)
 Number     Number              X              Y              Z
 -------------------------------------------------------------------
      1        6           0.011094731    0.003866158    0.000539291
      2        1           0.008029063   -0.010758744    0.002014463
      3        1           0.006502573    0.002654925    0.012273512
      4        1          -0.009463621    0.009892992   -0.014039285
      5        6          -0.068078726   -0.026596233    0.003266661
      6        1           0.002254294    0.003568055   -0.000790499
      7        6           0.015923471    0.013908899   -0.012836873
      8        1          -0.007484302    0.009249105    0.015482503
      9        1           0.007377886   -0.011218222    0.001078418
     10        6          -0.002633421   -0.011960015    0.006307069
     11        1           0.008142777    0.002142302   -0.005984042
     12        1          -0.003246119   -0.002787324   -0.012260403
     13        1          -0.003898050    0.010281190   -0.002025574
     14       35           0.049049980    0.004705658    0.006710653
     15        6           0.016793577   -0.066002557   -0.004378349
     16        1           0.001208020    0.022129696    0.012149308
     17        1          -0.005539444    0.021458127   -0.011652043
     18        6           0.010672542    0.014488653   -0.003464502
     19        1           0.000661450   -0.006528411    0.007782797
     20        1          -0.013760010    0.011532509    0.003804577
     21        1          -0.003585685   -0.006830866   -0.006615854
     22        8          -0.020020985    0.012804101    0.002638172
 -------------------------------------------------------------------
 Cartesian Forces:  Max     0.068078726 RMS     0.016464144

 GradGradGradGradGradGradGradGradGradGradGradGradGradGradGradGradGradGrad
 Berny optimization.
 Internal  Forces:  Max     0.049049934 RMS     0.008502815
 Search for a local minimum.
 Step number   1 out of a maximum of  125
 All quantities printed in internal units (Hartrees-Bohrs-Radians)
 Mixed Optimization -- RFO/linear search
 Second derivative matrix not updated -- first step.
 DSYEVD returned Info=        6843 IAlg= 4 N=   115 NDim=   115 NE2=      289958 trying DSYEV.
     Eigenvalues ---    0.00237   0.00237   0.00354   0.00389   0.00838
     Eigenvalues ---    0.01295   0.02615   0.03172   0.04172   0.04576
     Eigenvalues ---    0.04645   0.04886   0.05011   0.05107   0.05573
     Eigenvalues ---    0.05720   0.05720   0.05720   0.05720   0.05753
     Eigenvalues ---    0.06194   0.07350   0.08362   0.09060   0.09958
     Eigenvalues ---    0.11024   0.11394   0.12534   0.13015   0.14834
     Eigenvalues ---    0.16000   0.16000   0.16000   0.16000   0.16000
     Eigenvalues ---    0.16000   0.17310   0.17771   0.19203   0.19986
     Eigenvalues ---    0.21988   0.27025   0.27613   0.28519   0.28519
     Eigenvalues ---    0.34373   0.37230   0.37230   0.37230   0.37230
     Eigenvalues ---    0.37230   0.37230   0.37230   0.37230   0.37230
     Eigenvalues ---    0.37230   0.37230   0.37230   0.37230   0.40989
     Eigenvalues --- 1000.000001000.000001000.000001000.000001000.00000
     Eigenvalues --- 1000.000001000.000001000.000001000.000001000.00000
     Eigenvalues --- 1000.000001000.000001000.000001000.000001000.00000
     Eigenvalues --- 1000.000001000.000001000.000001000.000001000.00000
     Eigenvalues --- 1000.000001000.000001000.000001000.000001000.00000
     Eigenvalues --- 1000.000001000.000001000.000001000.000001000.00000
     Eigenvalues --- 1000.000001000.000001000.000001000.000001000.00000
     Eigenvalues --- 1000.000001000.000001000.000001000.000001000.00000
     Eigenvalues --- 1000.000001000.000001000.000001000.000001000.00000
     Eigenvalues --- 1000.000001000.000001000.000001000.000001000.00000
     Eigenvalues --- 1000.000001000.000001000.000001000.000001000.00000
 RFO step:  Lambda=-3.59830471D-02 EMin= 2.36824109D-03
 Linear search not attempted -- first point.
 Maximum step size (   0.300) exceeded in Quadratic search.
    -- Step size scaled by   0.683
 Iteration  1 RMS(Cart)=  0.04990754 RMS(Int)=  0.00104786
 Iteration  2 RMS(Cart)=  0.00121224 RMS(Int)=  0.00042332
 Iteration  3 RMS(Cart)=  0.00000183 RMS(Int)=  0.00042332
 Iteration  4 RMS(Cart)=  0.00000000 RMS(Int)=  0.00042332
 Variable       Old X    -DE/DX   Delta X   Delta X   Delta X     New X
                                 (Linear)    (Quad)   (Total)
    R1        2.02201   0.01282   0.00000   0.02144   0.02144   2.04345
    R2        2.02201   0.01344   0.00000   0.02248   0.02248   2.04449
    R3        2.02201   0.01647   0.00000   0.02584   0.02566   2.04767
    R4        2.91018  -0.00384   0.00000  -0.00752  -0.00748   2.90270
    R5        3.61835   0.00358   0.00000   0.01904   0.01884   3.63719
    R6        2.02201   0.00261   0.00000   0.00437   0.00437   2.02638
    R7        2.91018   0.00389   0.00000   0.00714   0.00720   2.91738
    R8        3.60938   0.04905   0.00000   0.15677   0.15677   3.76614
    R9        2.02201   0.01404   0.00000   0.02521   0.02539   2.04739
   R10        2.02201   0.01304   0.00000   0.02181   0.02181   2.04381
   R11        2.91018   0.00976   0.00000   0.02076   0.02076   2.93093
   R12        3.61835   0.00218   0.00000   0.02832   0.02843   3.64678
   R13        2.02201   0.00814   0.00000   0.01362   0.01362   2.03562
   R14        2.02201   0.01240   0.00000   0.02075   0.02075   2.04276
   R15        2.02201   0.01099   0.00000   0.01839   0.01839   2.04040
   R16        2.02201   0.02074   0.00000   0.03469   0.03469   2.05669
   R17        2.02201   0.02059   0.00000   0.03445   0.03445   2.05645
   R18        2.91018   0.00448   0.00000   0.00953   0.00953   2.91971
   R19        2.70231  -0.01179   0.00000  -0.01806  -0.01806   2.68424
   R20        2.02201   0.00998   0.00000   0.01669   0.01669   2.03869
   R21        2.02201   0.01676   0.00000   0.02803   0.02803   2.05004
   R22        2.02201   0.00995   0.00000   0.01665   0.01665   2.03866
    A1        1.91063  -0.00382   0.00000  -0.01445  -0.01451   1.89613
    A2        1.91063   0.00775   0.00000   0.02668   0.02639   1.93702
    A3        1.91063   0.00048   0.00000   0.00285   0.00303   1.91367
    A4        1.91063   0.00222   0.00000   0.00636   0.00651   1.91715
    A5        1.91063   0.00605   0.00000   0.01383   0.01368   1.92431
    A6        1.91063  -0.01269   0.00000  -0.03527  -0.03490   1.87573
    A7        2.28091   0.01384   0.00000   0.03737   0.03754   2.31846
    A8        1.91063  -0.00264   0.00000  -0.01045  -0.01052   1.90012
    A9        1.91063   0.01031   0.00000   0.04071   0.04083   1.95146
   A10        1.91063  -0.00790   0.00000  -0.02413  -0.02561   1.88503
   A11        1.91063  -0.00387   0.00000  -0.01274  -0.01278   1.89785
   A12        1.91063  -0.00151   0.00000  -0.02513  -0.02537   1.88527
   A13        1.91063   0.00561   0.00000   0.03174   0.03197   1.94261
   A14        1.91063  -0.01258   0.00000  -0.04651  -0.04614   1.86449
   A15        1.91063  -0.00498   0.00000  -0.01284  -0.01336   1.89728
   A16        1.91063   0.02156   0.00000   0.06758   0.06744   1.97808
   A17        1.91063   0.00615   0.00000   0.01808   0.01770   1.92833
   A18        1.91063  -0.00487   0.00000  -0.02096  -0.02015   1.89048
   A19        1.91063  -0.00528   0.00000  -0.00536  -0.00562   1.90502
   A20        2.28091   0.01401   0.00000   0.04485   0.04471   2.32563
   A21        1.91063   0.00842   0.00000   0.03182   0.03163   1.94227
   A22        1.91063   0.00329   0.00000   0.01014   0.01001   1.92064
   A23        1.91063  -0.00001   0.00000  -0.00118  -0.00123   1.90941
   A24        1.91063  -0.00510   0.00000  -0.01545  -0.01572   1.89492
   A25        1.91063  -0.00335   0.00000  -0.00904  -0.00915   1.90149
   A26        1.91063  -0.00325   0.00000  -0.01628  -0.01626   1.89437
   A27        1.91063  -0.00326   0.00000  -0.03169  -0.03430   1.87633
   A28        1.91063  -0.00675   0.00000  -0.03596  -0.03678   1.87385
   A29        1.91063   0.00742   0.00000   0.04569   0.04576   1.95639
   A30        1.91063  -0.00654   0.00000  -0.03520  -0.03601   1.87462
   A31        1.91063   0.00719   0.00000   0.04455   0.04461   1.95524
   A32        1.91063   0.00195   0.00000   0.01261   0.01288   1.92351
   A33        1.91063  -0.00340   0.00000  -0.01435  -0.01452   1.89612
   A34        1.91063   0.01226   0.00000   0.04763   0.04761   1.95824
   A35        1.91063  -0.00321   0.00000  -0.01358  -0.01376   1.89688
   A36        1.91063  -0.00287   0.00000  -0.00520  -0.00520   1.90543
   A37        1.91063   0.00010   0.00000  -0.00947  -0.00981   1.90082
   A38        1.91063  -0.00289   0.00000  -0.00502  -0.00505   1.90558
   A39        1.43286  -0.00759   0.00000  -0.02338  -0.02362   1.40924
   A40        2.15649   0.00566   0.00000   0.01758   0.01794   2.17442
   A41        2.34254   0.00312   0.00000   0.01082   0.01079   2.35333
    D1       -2.09439  -0.00107   0.00000  -0.00794  -0.00756  -2.10195
    D2        2.09440  -0.00250   0.00000  -0.01048  -0.01027   2.08413
    D3        0.00000  -0.00350   0.00000  -0.00971  -0.00964  -0.00963
    D4        3.14159   0.00226   0.00000   0.01012   0.01005  -3.13155
    D5        1.04720   0.00230   0.00000   0.00719   0.00722   1.05442
    D6       -1.04720  -0.00605   0.00000  -0.04184  -0.04143  -1.08862
    D7       -1.04720   0.00158   0.00000   0.00263   0.00253  -1.04467
    D8        3.14159   0.00163   0.00000  -0.00030  -0.00030   3.14129
    D9        1.04720  -0.00673   0.00000  -0.04932  -0.04894   0.99825
   D10        1.04720   0.00024   0.00000  -0.00271  -0.00267   1.04453
   D11       -1.04720   0.00028   0.00000  -0.00564  -0.00550  -1.05269
   D12        3.14159  -0.00807   0.00000  -0.05466  -0.05414   3.08745
   D13        0.72481  -0.00191   0.00000  -0.01043  -0.01070   0.71411
   D14       -1.69830  -0.00268   0.00000  -0.01448  -0.01458  -1.71288
   D15        1.04720  -0.00191   0.00000  -0.01101  -0.01055   1.03665
   D16       -1.04720   0.00131   0.00000   0.00319   0.00277  -1.04443
   D17       -3.14159  -0.00238   0.00000  -0.02377  -0.02430   3.11730
   D18       -1.04720  -0.00262   0.00000  -0.01535  -0.01470  -1.06190
   D19       -3.14159   0.00060   0.00000  -0.00114  -0.00138   3.14021
   D20        1.04720  -0.00308   0.00000  -0.02811  -0.02845   1.01875
   D21       -3.14159  -0.00184   0.00000   0.00380   0.00497  -3.13662
   D22        1.04720   0.00138   0.00000   0.01800   0.01829   1.06549
   D23       -1.04720  -0.00230   0.00000  -0.00896  -0.00877  -1.05597
   D24        0.00000   0.00843   0.00000   0.03511   0.03541   0.03541
   D25        2.09439  -0.00160   0.00000   0.00198   0.00186   2.09625
   D26       -2.09440  -0.00728   0.00000  -0.00635  -0.00674  -2.10113
   D27        1.04526   0.00327   0.00000   0.02101   0.02118   1.06644
   D28        3.13966   0.00419   0.00000   0.02778   0.02808  -3.11545
   D29       -1.04913   0.00222   0.00000   0.01332   0.01351  -1.03563
   D30        3.13966  -0.00191   0.00000  -0.00740  -0.00754   3.13211
   D31       -1.04913  -0.00099   0.00000  -0.00063  -0.00065  -1.04978
   D32        1.04526  -0.00296   0.00000  -0.01509  -0.01522   1.03004
   D33       -1.04913  -0.00060   0.00000  -0.00137  -0.00154  -1.05067
   D34        1.04526   0.00033   0.00000   0.00540   0.00536   1.05062
   D35        3.13966  -0.00164   0.00000  -0.00906  -0.00921   3.13044
   D36       -0.72481  -0.00033   0.00000  -0.00741  -0.00798  -0.73278
   D37        1.54518   0.00158   0.00000  -0.00056  -0.00093   1.54425
   D38       -1.04914  -0.00802   0.00000  -0.05539  -0.05457  -1.10371
   D39        1.04526  -0.00611   0.00000  -0.04137  -0.04066   1.00460
   D40        3.13965  -0.00411   0.00000  -0.02668  -0.02604   3.11361
   D41        3.13965   0.00411   0.00000   0.02700   0.02638  -3.11715
   D42       -1.04914   0.00602   0.00000   0.04102   0.04029  -1.00884
   D43        1.04526   0.00803   0.00000   0.05571   0.05491   1.10017
   D44        1.04526  -0.00188   0.00000  -0.01372  -0.01363   1.03163
   D45        3.13965   0.00003   0.00000   0.00029   0.00028   3.13994
   D46       -1.04914   0.00204   0.00000   0.01499   0.01490  -1.03424
   D47        0.26064  -0.00368   0.00000  -0.01087  -0.01097   0.24967
   D48       -1.73835  -0.00127   0.00000  -0.00506  -0.00524  -1.74359
   D49        2.35504   0.00127   0.00000   0.00558   0.00577   2.36081
   D50        0.35605   0.00368   0.00000   0.01139   0.01150   0.36755
   D51       -1.83375  -0.00115   0.00000  -0.00253  -0.00250  -1.83625
   D52        2.45045   0.00126   0.00000   0.00328   0.00323   2.45368
         Item               Value     Threshold  Converged?
 Maximum Force            0.049050     0.000450     NO 
 RMS     Force            0.008503     0.000300     NO 
 Maximum Displacement     0.226007     0.001800     NO 
 RMS     Displacement     0.050071     0.001200     NO 
 Predicted change in Energy=-1.776450D-02
 GradGradGradGradGradGradGradGradGradGradGradGradGradGradGradGradGradGrad

                          Input orientation:                          
 ---------------------------------------------------------------------
 Center     Atomic      Atomic             Coordinates (Angstroms)
 Number     Number       Type             X           Y           Z
 ---------------------------------------------------------------------
      1          6           0       -3.187059    0.332691    0.025159
      2          1           0       -2.827574   -0.687094    0.036277
      3          1           0       -2.827752    0.835704    0.913066
      4          1           0       -4.269909    0.362131   -0.001531
      5          6           0       -2.675110    1.047004   -1.234641
      6          1           0       -3.030082    2.058837   -1.228003
      7          6           0       -3.167262    0.357205   -2.525114
      8          1           0       -4.250171    0.377416   -2.498146
      9          1           0       -2.807780   -0.662821   -2.531929
     10          6           0       -2.698541    1.070501   -3.820127
     11          1           0       -1.623771    1.086088   -3.890833
     12          1           0       -3.093265    0.560492   -4.687654
     13          1           0       -3.064827    2.086203   -3.822806
     14         35           0       -0.684387    1.091553   -1.151474
     15          6           0       -6.168026    2.368308   -1.096224
     16          1           0       -5.692755    2.977259   -0.329534
     17          1           0       -6.165539    2.944005   -2.019699
     18          6           0       -7.642433    2.169884   -0.679199
     19          1           0       -7.667280    1.621358    0.249444
     20          1           0       -8.162306    3.113206   -0.549822
     21          1           0       -8.142023    1.591325   -1.440456
     22          8           0       -5.528327    1.109597   -1.251419
 ---------------------------------------------------------------------
                    Distance matrix (angstroms):
                    1          2          3          4          5
     1  C    0.000000
     2  H    1.081348   0.000000
     3  H    1.081898   1.757177   0.000000
     4  H    1.083580   1.783994   1.772167   0.000000
     5  C    1.536044   2.155360   2.163468   2.129083   0.000000
     6  H    2.138840   3.029778   2.474100   2.433150   1.072313
     7  C    2.550467   2.786875   3.487880   2.753965   1.543812
     8  H    2.738481   3.095201   3.724201   2.496740   2.127348
     9  H    2.770125   2.568397   3.756856   3.096976   2.150363
    10  C    3.945787   4.240005   4.740774   4.189590   2.585699
    11  H    4.283278   4.473870   4.958801   4.759499   2.856956
    12  H    4.719247   4.893116   5.613760   4.835658   3.512099
    13  H    4.230435   4.758150   4.903921   4.361971   2.816098
    14  Br   2.867700   3.027802   2.986938   3.835413   1.992958
    15  C    3.779868   4.666547   4.188503   2.970849   3.737040
    16  H    3.660337   4.665894   3.786629   2.995158   3.694764
    17  H    4.457774   5.343588   4.918015   3.785827   4.049447
    18  C    4.870499   5.644209   5.243711   3.886016   5.122858
    19  H    4.667264   5.366297   4.947594   3.631910   5.239671
    20  H    5.728434   6.576106   5.982017   4.797894   5.903176
    21  H    5.318257   5.967856   5.861016   4.309836   5.497798
    22  O    2.777548   3.490033   3.471760   1.924718   2.853953
                    6          7          8          9         10
     6  H    0.000000
     7  C    2.144030   0.000000
     8  H    2.434965   1.083433   0.000000
     9  H    3.026064   1.081539   1.778686   0.000000
    10  C    2.793892   1.550983   2.153034   2.162359   0.000000
    11  H    3.164588   2.186052   3.056103   2.511411   1.077206
    12  H    3.770704   2.173334   2.483121   2.495024   1.080981
    13  H    2.595180   2.164239   2.465708   3.047880   1.079733
    14  Br   2.538460   2.931010   3.877929   3.080955   3.343496
    15  C    3.155920   3.884694   3.099549   4.747657   4.597964
    16  H    2.956446   4.250102   3.680097   5.140409   4.978482
    17  H    3.352819   3.992073   3.238044   4.954404   4.332624
    18  C    4.646214   5.169175   4.246052   5.901754   5.959542
    19  H    4.886496   5.435662   4.557772   6.047169   6.446179
    20  H    5.283119   6.037201   5.156096   6.845297   6.687322
    21  H    5.137669   5.239063   4.211745   5.892931   5.963689
    22  O    2.672608   2.786220   1.929793   3.490351   3.821973
                   11         12         13         14         15
    11  H    0.000000
    12  H    1.752309   0.000000
    13  H    1.755420   1.754014   0.000000
    14  Br   2.895956   4.311529   3.713736   0.000000
    15  C    5.486728   5.061692   4.140492   5.630582   0.000000
    16  H    5.728526   5.620616   4.461271   5.414353   1.088356
    17  H    5.251729   4.715717   3.688012   5.850506   1.088228
    18  C    6.907496   6.273180   5.553715   7.056929   1.545043
    19  H    7.345231   6.813368   6.162944   7.141713   2.148609
    20  H    7.617349   7.023759   6.144222   7.769707   2.197859
    21  H    6.981921   6.090720   5.630134   7.479948   2.149154
    22  O    4.713027   4.247205   3.692509   4.845005   1.420441
                   16         17         18         19         20
    16  H    0.000000
    17  H    1.755360   0.000000
    18  C    2.139010   2.139491   0.000000
    19  H    2.464231   3.025497   1.078831   0.000000
    20  H    2.483081   2.485206   1.084834   1.763374   0.000000
    21  H    3.025537   2.464093   1.078811   1.755575   1.763453
    22  O    2.089275   2.088384   2.433329   2.662632   3.382977
                   21         22
    21  H    0.000000
    22  O    2.664433   0.000000
 Stoichiometry    C6H14BrO(1-)
 Framework group  C1[X(C6H14BrO)]
 Deg. of freedom    60
 Full point group                 C1      NOp   1
 Largest Abelian subgroup         C1      NOp   1
 Largest concise Abelian subgroup C1      NOp   1
                         Standard orientation:                         
 ---------------------------------------------------------------------
 Center     Atomic      Atomic             Coordinates (Angstroms)
 Number     Number       Type             X           Y           Z
 ---------------------------------------------------------------------
      1          6           0        0.083134   -1.366873    0.904903
      2          1           0       -0.429132   -1.376466    1.857166
      3          1           0       -0.133114   -2.291581    0.386585
      4          1           0        1.153110   -1.262964    1.040918
      5          6           0       -0.394739   -0.166933    0.073512
      6          1           0        0.113033   -0.175155   -0.870921
      7          6           0       -0.103648    1.173749    0.781462
      8          1           0        0.968549    1.224412    0.928624
      9          1           0       -0.617152    1.182043    1.733288
     10          6           0       -0.541439    2.411942   -0.043622
     11          1           0       -1.602977    2.404513   -0.226533
     12          1           0       -0.290008    3.319073    0.487806
     13          1           0       -0.022539    2.413721   -0.990492
     14         35           0       -2.344147   -0.394612   -0.272686
     15          6           0        3.262586   -0.088571   -0.690225
     16          1           0        2.940409   -0.903633   -1.335511
     17          1           0        3.287790    0.816507   -1.293911
     18          6           0        4.712753   -0.392699   -0.252411
     19          1           0        4.714162   -1.302048    0.328070
     20          1           0        5.380612   -0.509563   -1.099271
     21          1           0        5.063993    0.417883    0.366800
     22          8           0        2.425814    0.053872    0.448710
 ---------------------------------------------------------------------
 Rotational constants (GHZ):      2.4181737      0.4725524      0.4274237
 Standard basis: 3-21G (6D, 7F)
 There are   114 symmetry adapted basis functions of A   symmetry.
 Integral buffers will be    262144 words long.
 Raffenetti 1 integral format.
 Two-electron integral symmetry is turned on.
   114 basis functions,   204 primitive gaussians,   114 cartesian basis functions
    47 alpha electrons       47 beta electrons
       nuclear repulsion energy       602.6358429056 Hartrees.
 NAtoms=   22 NActive=   22 NUniq=   22 SFac= 7.50D-01 NAtFMM=   80 NAOKFM=F Big=F
 One-electron integrals computed using PRISM.
 NBasis=   114 RedAO= T  NBF=   114
 NBsUse=   114 1.00D-06 NBFU=   114
 Initial guess read from the read-write file.
 B after Tr=     0.000000    0.000000    0.000000
         Rot=    1.000000    0.000000    0.000000    0.000000 Ang=   0.00 deg.
 Initial guess orbital symmetries:
       Occupied  (A) (A) (A) (A) (A) (A) (A) (A) (A) (A) (A) (A)
                 (A) (A) (A) (A) (A) (A) (A) (A) (A) (A) (A) (A)
                 (A) (A) (A) (A) (A) (A) (A) (A) (A) (A) (A) (A)
                 (A) (A) (A) (A) (A) (A) (A) (A) (A) (A) (A)
       Virtual   (A) (A) (A) (A) (A) (A) (A) (A) (A) (A) (A) (A)
                 (A) (A) (A) (A) (A) (A) (A) (A) (A) (A) (A) (A)
                 (A) (A) (A) (A) (A) (A) (A) (A) (A) (A) (A) (A)
                 (A) (A) (A) (A) (A) (A) (A) (A) (A) (A) (A) (A)
                 (A) (A) (A) (A) (A) (A) (A) (A) (A) (A) (A) (A)
                 (A) (A) (A) (A) (A) (A) (A)
 Harris functional with IExCor=  205 diagonalized for initial guess.
 ExpMin= 1.65D-01 ExpMax= 6.10D+03 ExpMxC= 6.10D+03 IAcc=1 IRadAn=         1 AccDes= 0.00D+00
 HarFok:  IExCor=  205 AccDes= 0.00D+00 IRadAn=         1 IDoV= 1
 ScaDFX=  1.000000  1.000000  1.000000  1.000000
 FoFCou: FMM=F IPFlag=           0 FMFlag=      100000 FMFlg1=           0
         NFxFlg=           0 DoJE=T BraDBF=F KetDBF=T FulRan=T
         Omega=  0.000000  0.000000  1.000000  0.000000  0.000000 ICntrl=     500 IOpCl=  0
         NMat0=    1 NMatS0=    1 NMatT0=    0 NMatD0=    1 NMtDS0=    0 NMtDT0=    0
         I1Cent=           4 NGrid=           0.
 Petite list used in FoFCou.
 Requested convergence on RMS density matrix=1.00D-08 within 128 cycles.
 Requested convergence on MAX density matrix=1.00D-06.
 Requested convergence on             energy=1.00D-06.
 No special actions if energy rises.
 Keep R1 ints in memory in canonical form, NReq=22365846.
 SCF Done:  E(RHF) =  -2868.51146145     A.U. after   12 cycles
             Convg  =    0.2746D-08             -V/T =  1.9971
 Calling FoFJK, ICntrl=      2127 FMM=F ISym2X=0 I1Cent= 0 IOpClX= 0 NMat=1 NMatS=1 NMatT=0.
 ***** Axes restored to original set *****
 -------------------------------------------------------------------
 Center     Atomic                   Forces (Hartrees/Bohr)
 Number     Number              X              Y              Z
 -------------------------------------------------------------------
      1        6           0.006714988   -0.002360737    0.001993097
      2        1           0.002094928   -0.003309090    0.001405602
      3        1           0.002562943    0.000371387    0.002689765
      4        1          -0.000701240    0.006455530   -0.010699573
      5        6          -0.039833224   -0.012803824   -0.002018579
      6        1           0.005280161    0.003404508   -0.000293838
      7        6           0.013267864    0.001684958   -0.009436369
      8        1           0.000696052    0.005873826    0.013847687
      9        1           0.001566901   -0.003745552   -0.000020039
     10        6          -0.000583527   -0.003964795    0.008623701
     11        1           0.004558490    0.000842968   -0.001211971
     12        1          -0.002056574   -0.001282786   -0.003024654
     13        1          -0.001390082    0.003833225   -0.001204923
     14       35           0.016953935    0.003382446   -0.000711281
     15        6           0.013163997   -0.040192132   -0.003618435
     16        1           0.000595139    0.011308701    0.004000615
     17        1          -0.001633492    0.011019098   -0.004161764
     18        6           0.001880033    0.006976018   -0.000726554
     19        1          -0.000465318   -0.003240487    0.002795825
     20        1          -0.003905008    0.003154854    0.001061167
     21        1          -0.001829213   -0.003360197   -0.001974417
     22        8          -0.016937752    0.015952081    0.002684940
 -------------------------------------------------------------------
 Cartesian Forces:  Max     0.040192132 RMS     0.009330589

 GradGradGradGradGradGradGradGradGradGradGradGradGradGradGradGradGradGrad
 Berny optimization.
 Using GEDIIS/GDIIS optimizer.
 Internal  Forces:  Max     0.016980852 RMS     0.003862313
 Search for a local minimum.
 Step number   2 out of a maximum of  125
 All quantities printed in internal units (Hartrees-Bohrs-Radians)
 Mixed Optimization -- RFO/linear search
 Update second derivatives using D2CorX and points    1    2
 DE= -1.64D-02 DEPred=-1.78D-02 R= 9.24D-01
 SS=  1.41D+00  RLast= 3.00D-01 DXNew= 5.0454D-01 8.9969D-01
 Trust test= 9.24D-01 RLast= 3.00D-01 DXMaxT set to 5.05D-01
 Use linear search instead of GDIIS.
     Eigenvalues ---    0.00237   0.00237   0.00360   0.00387   0.00814
     Eigenvalues ---    0.01295   0.02560   0.03101   0.03949   0.04503
     Eigenvalues ---    0.04528   0.04607   0.05019   0.05109   0.05440
     Eigenvalues ---    0.05479   0.05619   0.05667   0.05683   0.05866
     Eigenvalues ---    0.06207   0.07658   0.08714   0.08937   0.09840
     Eigenvalues ---    0.10810   0.11468   0.12620   0.12691   0.15524
     Eigenvalues ---    0.15928   0.16000   0.16000   0.16000   0.16000
     Eigenvalues ---    0.16176   0.17327   0.18182   0.18737   0.21645
     Eigenvalues ---    0.22123   0.27223   0.27996   0.28462   0.30243
     Eigenvalues ---    0.34336   0.35750   0.37229   0.37230   0.37230
     Eigenvalues ---    0.37230   0.37230   0.37230   0.37230   0.37230
     Eigenvalues ---    0.37230   0.37230   0.37230   0.37721   0.43545
     Eigenvalues --- 1000.000001000.000001000.000001000.000001000.00000
     Eigenvalues --- 1000.000001000.000001000.000001000.000001000.00000
     Eigenvalues --- 1000.000001000.000001000.000001000.000001000.00000
     Eigenvalues --- 1000.000001000.000001000.000001000.000001000.00000
     Eigenvalues --- 1000.000001000.000001000.000001000.000001000.00000
     Eigenvalues --- 1000.000001000.000001000.000001000.000001000.00000
     Eigenvalues --- 1000.000001000.000001000.000001000.000001000.00000
     Eigenvalues --- 1000.000001000.000001000.000001000.000001000.00000
     Eigenvalues --- 1000.000001000.000001000.000001000.000001000.00000
     Eigenvalues --- 1000.000001000.000001000.000001000.000001000.00000
     Eigenvalues --- 1000.000001000.000001000.000001000.000001000.00000
 RFO step:  Lambda=-1.06578261D-02 EMin= 2.36824038D-03
 Quartic linear search produced a step of  0.70257.
 Iteration  1 RMS(Cart)=  0.05465331 RMS(Int)=  0.00192404
 Iteration  2 RMS(Cart)=  0.00189558 RMS(Int)=  0.00093762
 Iteration  3 RMS(Cart)=  0.00000572 RMS(Int)=  0.00093761
 Iteration  4 RMS(Cart)=  0.00000003 RMS(Int)=  0.00093761
 Variable       Old X    -DE/DX   Delta X   Delta X   Delta X     New X
                                 (Linear)    (Quad)   (Total)
    R1        2.04345   0.00383   0.01507   0.00239   0.01746   2.06091
    R2        2.04449   0.00323   0.01580  -0.00093   0.01487   2.05936
    R3        2.04767   0.00521   0.01803   0.00536   0.02280   2.07047
    R4        2.90270  -0.00345  -0.00525  -0.02200  -0.02679   2.87592
    R5        3.63719   0.00032   0.01324   0.02288   0.03527   3.67246
    R6        2.02638   0.00146   0.00307   0.00346   0.00654   2.03291
    R7        2.91738  -0.00847   0.00506  -0.05903  -0.05352   2.86386
    R8        3.76614   0.01698   0.11014   0.04397   0.15411   3.92025
    R9        2.04739   0.00465   0.01783   0.00390   0.02225   2.06965
   R10        2.04381   0.00405   0.01532   0.00312   0.01844   2.06225
   R11        2.93093  -0.00276   0.01458  -0.02956  -0.01498   2.91596
   R12        3.64678   0.00113   0.01998   0.03603   0.05618   3.70296
   R13        2.03562   0.00464   0.00957   0.01115   0.02072   2.05635
   R14        2.04276   0.00378   0.01458   0.00264   0.01722   2.05998
   R15        2.04040   0.00408   0.01292   0.00552   0.01844   2.05884
   R16        2.05669   0.00941   0.02437   0.01787   0.04224   2.09894
   R17        2.05645   0.00936   0.02420   0.01783   0.04203   2.09848
   R18        2.91971   0.00398   0.00670   0.01609   0.02279   2.94250
   R19        2.68424  -0.01650  -0.01269  -0.05357  -0.06626   2.61798
   R20        2.03869   0.00406   0.01172   0.00659   0.01831   2.05701
   R21        2.05004   0.00474   0.01969   0.00196   0.02165   2.07169
   R22        2.03866   0.00404   0.01170   0.00652   0.01822   2.05687
    A1        1.89613  -0.00171  -0.01019  -0.00101  -0.01161   1.88451
    A2        1.93702   0.00263   0.01854   0.01816   0.03623   1.97325
    A3        1.91367   0.00148   0.00213   0.02633   0.02862   1.94229
    A4        1.91715   0.00243   0.00458   0.01576   0.01962   1.93677
    A5        1.92431   0.00192   0.00961  -0.00343   0.00577   1.93008
    A6        1.87573  -0.00670  -0.02452  -0.05587  -0.07882   1.79691
    A7        2.31846   0.00910   0.02638   0.04136   0.06831   2.38677
    A8        1.90012   0.00041  -0.00739   0.03549   0.02637   1.92649
    A9        1.95146   0.00400   0.02868   0.02598   0.05351   2.00497
   A10        1.88503   0.00045  -0.01799   0.02652   0.00753   1.89256
   A11        1.89785   0.00023  -0.00898   0.03021   0.01816   1.91602
   A12        1.88527  -0.00245  -0.01782  -0.06984  -0.08766   1.79760
   A13        1.94261  -0.00280   0.02246  -0.05037  -0.02799   1.91461
   A14        1.86449  -0.00612  -0.03242  -0.06358  -0.09491   1.76958
   A15        1.89728   0.00052  -0.00938   0.02607   0.01611   1.91338
   A16        1.97808   0.00252   0.04738  -0.04118   0.00629   1.98437
   A17        1.92833   0.00181   0.01244   0.01479   0.02657   1.95490
   A18        1.89048   0.00251  -0.01416   0.04797   0.03254   1.92302
   A19        1.90502  -0.00124  -0.00395   0.01538   0.01050   1.91552
   A20        2.32563   0.00907   0.03141   0.05092   0.08233   2.40796
   A21        1.94227   0.00168   0.02222  -0.00163   0.02036   1.96263
   A22        1.92064  -0.00058   0.00703  -0.01461  -0.00765   1.91299
   A23        1.90941   0.00112  -0.00086   0.01053   0.00954   1.91895
   A24        1.89492  -0.00031  -0.01104   0.01050  -0.00071   1.89421
   A25        1.90149  -0.00108  -0.00643   0.00000  -0.00669   1.89479
   A26        1.89437  -0.00091  -0.01142  -0.00481  -0.01621   1.87817
   A27        1.87633  -0.00316  -0.02410  -0.05469  -0.08457   1.79176
   A28        1.87385  -0.00236  -0.02584  -0.01502  -0.04276   1.83109
   A29        1.95639   0.00377   0.03215   0.03736   0.06961   2.02600
   A30        1.87462  -0.00225  -0.02530  -0.01465  -0.04181   1.83281
   A31        1.95524   0.00362   0.03134   0.03570   0.06713   2.02237
   A32        1.92351  -0.00015   0.00905   0.00612   0.01526   1.93878
   A33        1.89612  -0.00030  -0.01020   0.00315  -0.00735   1.88877
   A34        1.95824   0.00318   0.03345   0.00613   0.03938   1.99762
   A35        1.89688  -0.00022  -0.00966   0.00364  -0.00635   1.89052
   A36        1.90543  -0.00083  -0.00365   0.00264  -0.00118   1.90425
   A37        1.90082  -0.00112  -0.00689  -0.01956  -0.02691   1.87391
   A38        1.90558  -0.00083  -0.00355   0.00310  -0.00066   1.90492
   A39        1.40924  -0.00746  -0.01659  -0.04230  -0.05932   1.34992
   A40        2.17442   0.00537   0.01260   0.02920   0.04253   2.21696
   A41        2.35333   0.00276   0.00758   0.01623   0.02366   2.37699
    D1       -2.10195  -0.00046  -0.00531   0.02310   0.01838  -2.08357
    D2        2.08413  -0.00160  -0.00722   0.00243  -0.00488   2.07924
    D3       -0.00963  -0.00130  -0.00677   0.03099   0.02364   0.01401
    D4       -3.13155   0.00150   0.00706   0.00186   0.00951  -3.12204
    D5        1.05442  -0.00157   0.00507  -0.07559  -0.07078   0.98363
    D6       -1.08862  -0.00094  -0.02910  -0.04728  -0.07639  -1.16501
    D7       -1.04467   0.00152   0.00178   0.01499   0.01714  -1.02753
    D8        3.14129  -0.00155  -0.00021  -0.06246  -0.06315   3.07814
    D9        0.99825  -0.00092  -0.03439  -0.03415  -0.06876   0.92950
   D10        1.04453   0.00150  -0.00187  -0.00167  -0.00214   1.04239
   D11       -1.05269  -0.00157  -0.00386  -0.07912  -0.08243  -1.13513
   D12        3.08745  -0.00094  -0.03804  -0.05081  -0.08804   2.99941
   D13        0.71411  -0.00264  -0.00752  -0.03780  -0.04688   0.66723
   D14       -1.71288  -0.00279  -0.01024  -0.03881  -0.04946  -1.76234
   D15        1.03665   0.00071  -0.00741   0.05747   0.05182   1.08847
   D16       -1.04443   0.00169   0.00194   0.06141   0.06408  -0.98035
   D17        3.11730   0.00123  -0.01707   0.05046   0.03435  -3.13154
   D18       -1.06190  -0.00246  -0.01033  -0.02297  -0.03263  -1.09453
   D19        3.14021  -0.00148  -0.00097  -0.01903  -0.02037   3.11984
   D20        1.01875  -0.00194  -0.01999  -0.02998  -0.05010   0.96865
   D21       -3.13662   0.00210   0.00349   0.07423   0.07871  -3.05791
   D22        1.06549   0.00308   0.01285   0.07817   0.09096   1.15645
   D23       -1.05597   0.00262  -0.00616   0.06722   0.06124  -0.99473
   D24        0.03541   0.00271   0.02488   0.00012   0.02564   0.06104
   D25        2.09625   0.00074   0.00131   0.00218   0.00350   2.09975
   D26       -2.10113   0.00185  -0.00473   0.05928   0.05525  -2.04589
   D27        1.06644   0.00202   0.01488   0.02829   0.04344   1.10988
   D28       -3.11545   0.00234   0.01972   0.03069   0.05071  -3.06475
   D29       -1.03563   0.00156   0.00949   0.02240   0.03205  -1.00358
   D30        3.13211  -0.00241  -0.00530  -0.04403  -0.04963   3.08248
   D31       -1.04978  -0.00209  -0.00046  -0.04163  -0.04236  -1.09215
   D32        1.03004  -0.00287  -0.01069  -0.04992  -0.06102   0.96902
   D33       -1.05067   0.00056  -0.00108   0.01150   0.01053  -1.04014
   D34        1.05062   0.00087   0.00376   0.01390   0.01780   1.06842
   D35        3.13044   0.00010  -0.00647   0.00561  -0.00085   3.12959
   D36       -0.73278   0.00077  -0.00560   0.00630   0.00004  -0.73275
   D37        1.54425   0.00210  -0.00065   0.01234   0.01114   1.55539
   D38       -1.10371  -0.00379  -0.03834  -0.04817  -0.08464  -1.18835
   D39        1.00460  -0.00300  -0.02857  -0.03884  -0.06564   0.93896
   D40        3.11361  -0.00216  -0.01830  -0.02858  -0.04517   3.06844
   D41       -3.11715   0.00216   0.01853   0.02990   0.04674  -3.07041
   D42       -1.00884   0.00294   0.02831   0.03922   0.06575  -0.94309
   D43        1.10017   0.00379   0.03858   0.04948   0.08622   1.18639
   D44        1.03163  -0.00076  -0.00958  -0.00825  -0.01775   1.01388
   D45        3.13994   0.00003   0.00020   0.00108   0.00125   3.14119
   D46       -1.03424   0.00087   0.01047   0.01134   0.02172  -1.01252
   D47        0.24967  -0.00207  -0.00771   0.00231  -0.00540   0.24427
   D48       -1.74359   0.00092  -0.00368   0.02030   0.01665  -1.72694
   D49        2.36081  -0.00088   0.00405  -0.01621  -0.01217   2.34864
   D50        0.36755   0.00212   0.00808   0.00178   0.00988   0.37743
   D51       -1.83625  -0.00145  -0.00176  -0.00726  -0.00906  -1.84531
   D52        2.45368   0.00154   0.00227   0.01073   0.01299   2.46667
         Item               Value     Threshold  Converged?
 Maximum Force            0.016981     0.000450     NO 
 RMS     Force            0.003862     0.000300     NO 
 Maximum Displacement     0.193676     0.001800     NO 
 RMS     Displacement     0.054735     0.001200     NO 
 Predicted change in Energy=-7.363725D-03
 GradGradGradGradGradGradGradGradGradGradGradGradGradGradGradGradGradGrad

                          Input orientation:                          
 ---------------------------------------------------------------------
 Center     Atomic      Atomic             Coordinates (Angstroms)
 Number     Number       Type             X           Y           Z
 ---------------------------------------------------------------------
      1          6           0       -3.156589    0.292411    0.022714
      2          1           0       -2.824346   -0.746154    0.042084
      3          1           0       -2.751016    0.791707    0.902375
      4          1           0       -4.246808    0.393524   -0.017758
      5          6           0       -2.701405    0.994436   -1.248527
      6          1           0       -3.019820    2.021992   -1.243568
      7          6           0       -3.140036    0.327817   -2.536908
      8          1           0       -4.230037    0.397958   -2.456515
      9          1           0       -2.796690   -0.707988   -2.549081
     10          6           0       -2.652201    1.053853   -3.808095
     11          1           0       -1.567435    1.057689   -3.894041
     12          1           0       -3.067879    0.566365   -4.690066
     13          1           0       -3.003548    2.085132   -3.805104
     14         35           0       -0.632880    1.146854   -1.209076
     15          6           0       -6.200448    2.383481   -1.095525
     16          1           0       -5.777824    3.079748   -0.340357
     17          1           0       -6.245687    3.013370   -2.008941
     18          6           0       -7.684758    2.183311   -0.669701
     19          1           0       -7.698246    1.629991    0.267602
     20          1           0       -8.250639    3.113968   -0.545165
     21          1           0       -8.175250    1.564879   -1.419156
     22          8           0       -5.552637    1.166508   -1.231857
 ---------------------------------------------------------------------
                    Distance matrix (angstroms):
                    1          2          3          4          5
     1  C    0.000000
     2  H    1.090586   0.000000
     3  H    1.089766   1.763659   0.000000
     4  H    1.095646   1.823690   1.800719   0.000000
     5  C    1.521869   2.170356   2.161005   2.064985   0.000000
     6  H    2.147935   3.058388   2.488158   2.379079   1.075771
     7  C    2.559920   2.811454   3.492163   2.752341   1.515488
     8  H    2.703702   3.086738   3.691163   2.438818   2.037581
     9  H    2.782886   2.591595   3.763473   3.118297   2.144474
    10  C    3.938185   4.253650   4.718794   4.164788   2.560730
    11  H    4.295582   4.508520   4.947446   4.758753   2.878998
    12  H    4.721570   4.916835   5.605942   4.821848   3.487369
    13  H    4.229594   4.780079   4.888465   4.330268   2.795889
    14  Br   2.935386   3.154585   3.011786   3.879075   2.074508
    15  C    3.858511   4.742028   4.292311   2.989685   3.767779
    16  H    3.843428   4.848383   3.992629   3.108678   3.825919
    17  H    4.590617   5.481450   5.062043   3.850184   4.149248
    18  C    4.955730   5.719441   5.361884   3.930377   5.155800
    19  H    4.740858   5.426953   5.057741   3.677322   5.260323
    20  H    5.850899   6.685062   6.142812   4.869254   5.981734
    21  H    5.374488   6.009015   5.950598   4.332279   5.506133
    22  O    2.842365   3.567180   3.541823   1.943381   2.856468
[...]
 0.00016769,-0.00005106,0.00005516,-0.00000826,0.00000366,0.00005633,-0
 .00003952,0.00007126,-0.00006685,0.00008201,0.00025785,0.00067223,-0.0
 0047211,0.00024136,0.00021820,-0.00019289,0.00395965,-0.01642723,-0.00
 101957,0.00043165,-0.00026164,-0.00075176,-0.00040755,-0.00170134,0.00
 289682,-0.07890819,0.07089499,0.00494136,-0.00905608,0.03977292,0.0040
 7533,0.00391278,-0.01606073,-0.00057923,0.07968564,-0.00027144,0.00053
 947,0.00017467,0.00008481,0.00016258,-0.00027107,-0.00002483,0.0000256
 0,0.00011883,0.00012037,-0.00012676,0.00007171,0.00072451,0.00028338,-
 0.00118234,0.00022694,0.00090564,0.00112468,0.00467478,-0.02073308,-0.
 00219589,0.00036665,0.00013900,-0.00057644,-0.00204210,-0.00043918,0.0
 0355237,0.06919932,-0.30973695,-0.02015937,0.00118170,-0.00150463,-0.0
 0033360,0.00350397,-0.01393457,-0.00174862,-0.07710069,0.34372708,0.00
 030623,-0.00004790,0.00005619,-0.00000792,-0.00025763,0.00010744,-0.00
 001454,-0.00011762,0.00003765,0.00004597,0.00008536,-0.00000400,-0.001
 41998,0.00150388,0.00196404,0.00000978,-0.00082338,-0.00056915,-0.0080
 5870,0.03305979,0.00076980,-0.00053428,-0.00085970,0.00146582,0.002484
 02,0.00326714,-0.00476259,0.00487705,-0.02235113,-0.05949862,-0.000009
 34,-0.00057777,-0.00106282,0.01019757,-0.03352599,-0.00235516,-0.00821
 277,0.02109322,0.06393161,-0.03702325,0.00610128,-0.00822848,0.0023672
 3,-0.00068570,-0.00043361,0.00153391,0.00061166,0.00084865,0.00290818,
 -0.00423008,0.00837955,-0.03778206,0.01134615,-0.00158990,-0.02527423,
 -0.00009762,-0.00308352,-0.03252483,0.00506856,0.00074218,0.00436974,-
 0.00274387,-0.00743982,0.00229793,-0.00080867,0.00035989,-0.00009778,-
 0.00063192,0.00167310,0.00120678,0.00067706,-0.00196492,0.00057448,-0.
 00019841,-0.00022214,-0.00012267,-0.00004698,0.00033352,0.12194780,-0.
 00855096,0.00129112,-0.00103703,-0.00069655,0.00165047,-0.00069864,0.0
 0033517,-0.00000062,-0.00009695,-0.00067324,0.00024423,0.00157767,0.00
 877826,-0.03108188,0.00074427,0.02325722,0.00205636,0.00287581,-0.0059
 9230,0.00062954,-0.00029848,-0.00052590,0.00047191,-0.00133948,-0.0008
 8002,0.00147530,0.00069808,0.00026528,0.00037494,0.00061142,0.00055792
 ,-0.00029019,0.00029929,0.00014659,0.00008989,0.00007998,-0.00014622,0
 .00016019,-0.00023697,-0.01574681,0.02265597,0.01748884,-0.00326928,0.
 00217438,-0.00044148,-0.00083230,0.00052871,-0.00004991,0.00011551,0.0
 0153606,-0.00005248,0.00183505,-0.00254294,-0.00089262,0.00116081,-0.0
 2538543,-0.00180869,0.00011710,-0.00028420,-0.02346695,0.00493461,-0.0
 0173827,0.00129075,-0.00165913,-0.00464019,0.00073372,0.00063344,0.000
 95978,-0.00038024,-0.00022281,-0.00099973,-0.00232972,0.00014326,-0.00
 084849,-0.00066558,-0.00014707,0.00010040,-0.00029590,0.00026128,0.000
 04070,0.01140499,-0.00305022,0.02902990,0.00045524,-0.00130456,-0.0004
 4337,0.00061201,-0.00038789,0.00018279,0.00004939,0.00013097,0.0001565
 6,-0.00364785,0.00488011,-0.00202317,-0.00367056,0.00090886,-0.0002815
 7,-0.00039923,-0.00060440,-0.00002756,-0.00001612,-0.00125393,0.000471
 45,-0.00351936,0.00526987,0.00100746,0.00061692,-0.00029975,-0.0001733
 3,-0.00005352,0.00011013,0.00020806,0.00019110,-0.00004019,-0.00012270
 ,-0.00002322,-0.00013937,-0.00029035,-0.00017075,-0.00016226,0.0002705
 2,0.00184315,-0.00033346,0.00016717,0.51010750,-0.00335495,0.00123637,
 -0.00226516,-0.00066453,0.00013992,-0.00010886,-0.00104474,-0.00004571
 ,-0.00082807,0.00928229,-0.00518860,0.00833013,0.00416250,0.00281051,0
 .00069280,-0.00076585,-0.00061244,-0.00002009,-0.00406136,0.00062928,0
 .00169740,0.01086222,-0.00385207,-0.00639491,-0.00059187,0.00006204,0.
 00003449,-0.00083570,0.00123638,-0.00066252,-0.00040510,-0.00051201,0.
 00041112,0.00015428,-0.00002091,0.00015208,-0.00004287,-0.00068609,0.0
 0020550,-0.00248038,-0.00059144,-0.00020313,0.02530751,0.51968683,-0.0
 0178502,-0.00108369,-0.00127575,0.00015754,-0.00005263,-0.00000288,-0.
 00052057,-0.00003873,-0.00034725,0.00228041,0.00347268,0.00278985,-0.0
 0000815,0.00041982,-0.00069135,-0.00012189,-0.00014439,0.00011557,0.00
 124096,0.00100542,-0.00033370,-0.00183159,-0.00295508,0.00132228,-0.00
 010715,-0.00000515,-0.00006620,0.00020641,-0.00006673,0.00012685,-0.00
 002906,0.00010371,-0.00011328,0.00007064,-0.00013614,-0.00023774,0.000
 09111,0.00016352,0.00009699,-0.00004676,-0.00010275,0.00003739,0.06657
 419,-0.01425363,0.51392269,0.00018491,-0.00032067,0.00029882,0.0000221
 5,0.00008824,0.00000015,0.00011011,-0.00000972,0.00009775,0.00001731,-
 0.00002868,-0.00025120,0.00023617,-0.00069720,-0.00000053,0.00012350,0
 .00034637,-0.00001171,0.00026432,-0.00027686,-0.00029426,-0.00013377,0
 .00001861,0.00029430,0.00000807,0.00008612,0.00002833,0.00007627,-0.00
 025929,0.00004038,-0.00001526,0.00010207,-0.00001159,-0.00001043,0.000
 04499,0.00006693,0.00006205,0.00017902,-0.00010938,-0.00031516,0.00024
 795,-0.00003418,-0.15727506,-0.08389842,-0.02217907,0.17603243,0.00095
 671,0.00001445,0.00054674,-0.00008396,0.00013699,-0.00003871,0.0003304
 2,0.00000532,0.00024749,-0.00258468,0.00052654,-0.00199469,-0.00016391
 ,-0.00128708,-0.00012484,0.00046023,0.00048259,0.00001418,0.00103726,-
 0.00003632,-0.00037619,-0.00291428,0.00031169,0.00139827,-0.00005123,0
 .00012993,0.00004713,0.00024892,-0.00044740,0.00015324,0.00007061,0.00
 018343,-0.00008826,-0.00004968,0.00006127,0.00007465,0.00009173,0.0003
 1456,-0.00018394,0.00018242,0.00035478,0.00001239,-0.09111388,-0.14427
 599,-0.01923392,0.10583303,0.18423792,0.00027655,-0.00032637,0.0001464
 5,0.00009407,-0.00000420,0.00001232,0.00005383,0.00003310,0.00006792,-
 0.00034647,0.00028517,-0.00033838,-0.00008622,-0.00025609,0.00009863,0
 .00007826,0.00009706,0.00000008,0.00008229,0.00016700,-0.00000291,-0.0
 0041840,-0.00012338,0.00015549,-0.00005999,0.00003627,0.00001633,0.000
 05840,-0.00008028,-0.00002658,0.00001427,0.00002073,-0.00000668,-0.000
 01777,0.00003039,0.00003382,0.00002829,0.00004639,-0.00004013,0.000056
 31,0.00007074,-0.00001503,-0.02682983,-0.02155084,-0.07272721,0.024070
 17,0.02633473,0.07245254,-0.00070280,-0.00025533,-0.00033579,-0.000089
 94,0.00011247,-0.00000711,-0.00018657,-0.00004332,-0.00005130,0.002019
 07,-0.00019897,0.00178745,0.00122594,-0.00011346,-0.00005781,0.0000623
 2,0.00014598,-0.00004961,-0.00049519,0.00009117,0.00013203,0.00107866,
 -0.00030320,-0.00111139,-0.00006169,0.00004179,0.00006030,-0.00010391,
 0.00008568,-0.00005969,-0.00003602,-0.00006378,0.00006490,-0.00001134,
 0.00007063,0.00016049,-0.00003626,-0.00009000,-0.00006848,-0.00083413,
 0.00009226,0.00003485,-0.10463104,0.01110321,-0.07890420,-0.01630445,-
 0.00182659,-0.03083468,0.11591012,0.00113751,0.00013894,0.00072169,0.0
 0006992,-0.00006065,0.00000704,0.00037320,0.00003417,0.00018504,-0.002
 88776,0.00031220,-0.00251531,-0.00103101,-0.00047959,0.00018464,0.0001
 5699,0.00009837,-0.00001589,0.00059807,-0.00004438,-0.00020276,-0.0015
 0155,0.00035787,0.00113779,0.00004613,0.00000268,-0.00000661,0.0001414
 2,-0.00013804,0.00008250,0.00005037,0.00007459,-0.00007071,-0.00000343
 ,-0.00003234,-0.00011427,0.00002303,0.00011799,0.00000053,0.00072412,0
 .00007457,-0.00006273,0.01225681,-0.06669006,0.03083824,-0.01349887,0.
 00682001,-0.02248958,-0.02566733,0.08284202,-0.00038261,0.00011672,-0.
 00015498,-0.00013554,0.00009980,-0.00000520,-0.00002174,-0.00002263,0.
 00002089,0.00074817,-0.00009867,0.00074749,0.00080380,-0.00000937,0.00
 001108,0.00002240,0.00007222,-0.00005217,-0.00035039,0.00001683,0.0000
 3600,0.00119723,-0.00022029,-0.00060080,-0.00005411,0.00001911,0.00004
 854,-0.00008939,0.00010927,-0.00006446,-0.00000823,-0.00006630,0.00005
 871,-0.00002060,0.00007042,0.00016382,-0.00004500,-0.00011190,-0.00006
 218,-0.00050768,0.00003456,0.00006643,-0.07206040,0.02680102,-0.206469
 98,-0.00727501,-0.00219154,-0.00890068,0.08968095,-0.04101782,0.238668
 41,0.00000828,0.00005436,-0.00013239,0.00000947,0.00001446,-0.00003331
 ,-0.00015177,-0.00002799,-0.00012627,0.00019708,-0.00016218,0.00078005
 ,0.00063747,-0.00018765,0.00026885,0.00006044,0.00010230,0.00003914,-0
 .00052187,-0.00014979,0.00008140,0.00126706,0.00012468,-0.00065099,-0.
 00007857,0.00007198,0.00001967,-0.00010860,-0.00004653,-0.00010007,-0.
 00007811,-0.00000508,0.00007199,0.00001330,0.00003910,0.00003423,0.000
 04000,0.00004050,-0.00004556,-0.00038984,0.00008077,-0.00014869,-0.107
 87998,-0.01804375,0.02500452,-0.02449514,-0.00188500,0.02710816,0.0093
 5273,-0.00098716,-0.01314773,0.54605526,0.00012629,0.00008939,0.000298
 05,-0.00000418,0.00003045,-0.00000068,0.00018213,-0.00000256,0.0001269
 8,-0.00087190,0.00027142,-0.00116657,-0.00042866,-0.00044019,-0.000374
 60,0.00015849,0.00013813,0.00003427,0.00113154,0.00025142,-0.00040973,
 -0.00257291,-0.00015815,0.00141544,0.00001335,-0.00001668,0.00000258,0
 .00026831,-0.00021528,0.00016561,0.00007987,0.00011730,-0.00011018,-0.
 00002771,-0.00000085,-0.00001652,0.00004525,0.00014014,-0.00006321,0.0
 0030201,0.00007442,0.00011601,-0.01091643,-0.07833241,0.00659258,-0.02
 131460,0.00181546,0.02076034,-0.00515052,0.00259115,0.00467100,0.01645
 522,0.62893020,0.00003296,-0.00001998,-0.00018143,0.00006675,-0.000049
 48,-0.00002608,-0.00012348,-0.00000305,-0.00003889,-0.00056180,0.00030
 664,0.00040987,-0.00025319,-0.00016396,0.00003456,0.00004660,0.0000232
 4,0.00000966,0.00017609,-0.00008119,-0.00008051,0.00002371,-0.00006704
 ,0.00002496,0.00005639,-0.00003073,0.00000645,0.00001017,-0.00002044,-
 0.00001557,0.00003717,-0.00000247,0.00000176,-0.00002302,0.00002653,0.
 00001805,-0.00002630,-0.00002071,-0.00001915,0.00018954,0.00002211,-0.
 00000683,0.02196366,0.01420687,-0.12454733,-0.00344630,-0.00110620,0.0
 0136471,0.02827998,-0.00008901,-0.03279987,0.08739754,-0.01548471,0.54
 112284,-0.00003146,0.00001806,0.00012042,0.00004662,-0.00002559,-0.000
 01605,-0.00000016,0.00000307,-0.00002699,-0.00034025,0.00021347,-0.000
 15743,-0.00020385,0.00000704,-0.00002309,-0.00001446,-0.00002410,0.000
 01946,0.00011977,0.00001065,-0.00001328,-0.00024026,-0.00001411,0.0001
 1428,0.00000654,-0.00000908,-0.00000901,0.00001689,-0.00001468,0.00000
 902,0.00001005,0.00000970,-0.00001072,-0.00000055,-0.00000625,-0.00001
 641,0.00000373,0.00001063,0.00000530,0.00012759,-0.00001526,0.00001120
 ,0.01073191,-0.00442299,0.02801247,0.00203607,0.00029313,-0.00125326,-
 0.00289116,0.00086228,0.00539089,-0.11014744,0.02119013,-0.11046049,0.
 12052982,0.00003216,-0.00005484,-0.00001395,0.00001683,-0.00002274,-0.
 00001223,-0.00003266,0.00001255,-0.00002305,0.00043471,-0.00008856,0.0
 0007330,0.00005183,0.00005265,-0.00000224,-0.00001973,-0.00001742,0.00
 002493,-0.00005526,-0.00000117,0.00001710,0.00011139,-0.00002685,-0.00
 006355,-0.00000142,-0.00000162,-0.00000637,-0.00000821,0.00000547,-0.0
 0000819,-0.00000754,-0.00000200,0.00000526,0.00000188,-0.00000182,0.00
 000011,0.00000395,-0.00000307,0.00000389,-0.00005345,-0.00001459,-0.00
 000667,0.00020974,-0.00029843,-0.00107463,0.00033087,-0.00032881,0.000
 46352,-0.00011581,0.00096327,-0.00030900,0.02039736,-0.06773124,0.0423
 1714,-0.02313906,0.06721730,0.00003196,0.00000215,0.00012612,-0.000055
 94,0.00003949,0.00003019,0.00014188,0.00000344,0.00010855,0.00022849,-
 0.00031270,-0.00033454,0.00008873,0.00004642,-0.00009218,-0.00000821,0
 .00000500,-0.00004322,-0.00000466,-0.00000319,-0.00002107,-0.00011366,
 0.00002588,0.00005676,0.00001107,-0.00001161,0.00001139,0.00000716,0.0
 0004357,0.00002978,0.00002395,-0.00001535,-0.00000939,-0.00001196,0.00
 000868,0.00005229,-0.00003066,-0.00004405,-0.00000547,-0.00010253,-0.0
 0000339,0.00007797,-0.01723009,0.00724103,-0.02922876,0.00033140,0.000
 60125,0.00204474,0.00582411,-0.00054255,-0.00434171,-0.10857218,0.0407
 0135,-0.26736513,0.12067811,-0.04904119,0.29514178,-0.00023296,0.00004
 211,-0.00006600,-0.00004368,0.00002899,0.00000337,-0.00002508,-0.00001
 241,-0.00003858,0.00046468,-0.00019121,0.00042138,0.00047097,0.0000982
 3,0.00010851,-0.00002647,0.00000561,-0.00000574,-0.00035976,-0.0000680
 4,0.00008926,0.00083350,0.00002234,-0.00043946,-0.00003487,0.00002176,
 0.00000581,-0.00007896,0.00005492,-0.00005388,-0.00005298,-0.00002759,
 0.00003993,0.00001683,0.00000593,0.00002196,0.00001400,-0.00002417,-0.
 00000276,-0.00035425,-0.00000501,-0.00004407,-0.00641212,0.02637272,-0
 .00931061,-0.00018285,-0.00199756,-0.00127190,0.00165531,-0.00120455,0
 .00058678,-0.10644839,0.09613588,0.00190774,-0.00842396,0.01579497,0.0
 0151996,0.10949175,0.00022247,-0.00003267,0.00002741,0.00001820,-0.000
 01814,-0.00000169,0.00002509,0.00001469,0.00003596,-0.00050024,0.00015
 573,-0.00031550,-0.00046566,-0.00006135,-0.00005969,0.00001810,-0.0000
 0985,-0.00000251,0.00023440,-0.00000141,-0.00008210,-0.00052311,0.0001
 0203,0.00034893,0.00002960,-0.00001549,-0.00000520,0.00005604,-0.00003
 412,0.00003584,0.00004929,0.00001711,-0.00002956,-0.00001645,-0.000007
 48,-0.00001925,-0.00001942,0.00001480,0.00000866,0.00034899,0.00000433
 ,0.00002938,-0.00418626,-0.00155955,0.00424781,0.00122483,0.00129050,-
 0.00039630,-0.00039360,0.00052266,-0.00178651,0.09740958,-0.27323617,-
 0.00232310,0.00226891,-0.00575350,0.00056807,-0.11176413,0.30301079,0.
 00012166,-0.00003453,0.00014707,0.00000412,-0.00000202,0.00000646,0.00
 009689,0.00001218,0.00006349,-0.00021843,0.00009139,-0.00044509,-0.000
 25178,-0.00004707,-0.00012951,0.00001496,0.00000363,0.00000423,0.00028
 929,0.00003640,-0.00011045,-0.00064292,-0.00005661,0.00043959,0.000030
 34,-0.00001814,-0.00000529,0.00007365,-0.00003824,0.00005796,0.0000373
 6,0.00002565,-0.00003692,-0.00001201,-0.00000753,-0.00000595,-0.000006
 48,0.00001936,-0.00000102,0.00015444,-0.00000040,0.00005562,0.00613275
 ,-0.03003505,0.00548913,-0.00061062,0.00153557,0.00111392,-0.00202780,
 0.00078559,0.00009811,0.00124192,-0.00089161,-0.06197513,-0.01367014,0
 .03296226,0.00240958,-0.00091312,0.00180911,0.05859061,0.00001259,0.00
 003759,0.00001057,-0.00006524,0.00006375,0.00000730,0.00005741,-0.0000
 0426,0.00004442,-0.00005202,-0.00016902,-0.00005133,0.00021389,-0.0001
 3312,-0.00000028,0.00005705,0.00008017,-0.00001132,0.00004289,-0.00003
 866,-0.00004391,-0.00006219,0.00001304,0.00005076,-0.00003208,0.000037
 90,0.00000967,0.00001547,-0.00005371,0.00000611,-0.00001076,0.00002182
 ,-0.00000166,0.00000008,0.00000734,0.00002501,0.00002429,0.00005216,-0
 .00002769,-0.00012291,0.00005849,-0.00000332,-0.02135147,-0.02226844,-
 0.00555277,-0.00372668,0.00069551,0.00548999,0.00190640,0.00061672,0.0
 0017122,-0.19321421,-0.13307036,-0.03143861,-0.01323073,-0.01277853,-0
 .00282325,0.01437700,0.01241505,0.00323916,0.20919082,-0.00008685,0.00
 002645,-0.00003334,-0.00002194,0.00002319,0.00000031,-0.00000780,-0.00
 000945,-0.00000514,0.00012030,-0.00002522,0.00012701,0.00017343,-0.000
 02084,0.00001992,0.00000280,0.00001708,-0.00000631,-0.00010690,-0.0000
 1641,0.00000791,0.00023872,-0.00003675,-0.00011509,-0.00001124,0.00001
 774,0.00000327,-0.00000907,-0.00001229,-0.00001363,-0.00001591,0.00000
 114,0.00000842,0.00000468,0.00000504,0.00001368,0.00000613,0.00001306,
 -0.00000595,-0.00011340,0.00002065,-0.00001090,0.00183936,-0.00097226,
 -0.00192876,0.00058186,0.00128617,0.00055566,0.00016222,-0.00026021,0.
 00092613,-0.13546630,-0.19122629,-0.02679004,0.00557811,0.00530424,0.0
 0081205,-0.02537258,-0.02423073,-0.00523765,0.15266166,0.20777265,-0.0
 0004201,0.00000234,-0.00005642,-0.00001697,0.00001047,0.00002010,0.000
 01853,-0.00000187,0.00001837,0.00013276,-0.00012150,0.00006175,0.00000
 822,0.00010764,0.00001110,-0.00004114,-0.00003700,-0.00002679,-0.00012
 350,0.00000037,0.00005523,0.00016852,-0.00000463,-0.00013761,0.0000117
 9,-0.00001001,0.00000078,-0.00002058,0.00004905,-0.00000140,-0.0000024
 9,-0.00001961,0.00000401,0.00000463,-0.00000715,-0.00000620,-0.0000180
 1,-0.00003364,0.00001869,-0.00001413,-0.00002129,0.00000691,0.02511556
 ,0.02252361,0.00324042,0.00564678,-0.00049287,-0.00400052,-0.00118702,
 0.00032081,0.00187780,-0.03222586,-0.02847838,-0.06195370,-0.02507958,
 -0.02550872,-0.00542225,0.00037258,-0.00006053,-0.00163134,0.03276906,
 0.03121619,0.06676032,-0.00991919,0.00423504,-0.00895204,-0.00210495,0
 .00106139,-0.00047731,-0.00263864,0.00000621,-0.00156214,-0.00150183,-
 0.00549534,0.00621135,0.01020689,0.00211162,0.00179445,-0.00043928,-0.
 00017448,-0.00004469,-0.01228508,0.00366786,0.00589270,0.00126587,-0.0
 0632352,-0.00555919,-0.00239080,0.00105778,0.00032504,-0.00206383,0.00
 121935,-0.00112620,-0.00088213,-0.00082521,0.00106765,0.00012791,0.000
 17357,0.00068734,0.00012798,-0.00060286,-0.00001854,-0.00433567,-0.000
 25418,-0.00051770,-0.11555694,0.05563622,-0.00324142,0.02328545,-0.007
 52919,0.00370792,-0.00682605,0.02972509,-0.00450301,-0.01412717,0.0382
 6879,0.00614490,0.00189530,-0.00117403,0.00006634,-0.00464769,0.003548
 31,0.00691677,0.00597042,-0.00015726,-0.00547714,0.13683943,0.00500819
 ,0.00497405,0.00362779,-0.00090988,0.00020018,-0.00032004,0.00170510,0
 .00017994,0.00070847,-0.00528846,-0.00766535,-0.00585408,-0.00152102,-
 0.00213209,-0.00012271,0.00078999,0.00061172,0.00004727,0.00435828,0.0
 0533885,-0.00183788,-0.00571543,-0.00834816,0.00411229,-0.00102574,0.0
 0024478,0.00013850,0.00131682,-0.00074035,0.00051387,0.00036109,0.0004
 4564,-0.00042789,-0.00012115,-0.00006879,-0.00008267,0.00016070,0.0006
 2085,-0.00017680,0.00247504,0.00035003,0.00010540,0.05982901,-0.222163
 36,-0.00576758,0.01122034,-0.05159602,-0.00367407,0.02231650,-0.027245
 21,0.01289696,0.02217114,-0.02308969,-0.01065041,-0.00279405,0.0007911
 9,-0.00012436,0.00208376,-0.00017219,-0.00091226,0.00175491,0.00232306
 ,0.00056673,-0.11817515,0.32714093,-0.00927212,0.00347715,-0.00111140,
 -0.00157165,0.00084852,-0.00027681,-0.00116946,-0.00018887,-0.00013831
 ,0.00673850,-0.00729441,-0.00319988,0.00148682,0.00054016,-0.00508796,
 -0.00003929,-0.00000666,0.00013607,0.00688783,-0.00222683,0.00153970,-
 0.00687911,0.00580750,-0.00448319,0.00103840,-0.00058170,-0.00002461,0
 .00050342,-0.00027458,0.00120735,0.00064971,0.00029638,-0.00055092,-0.
 00024202,-0.00004979,0.00038866,-0.00024877,0.00005160,-0.00010863,-0.
 00050868,-0.00012834,0.00184687,-0.00276781,-0.00597379,-0.09109975,0.
 00334886,-0.00513449,0.00855115,-0.01133018,0.03286338,0.01165475,0.01
 313559,-0.02788800,0.00601676,-0.00362469,0.00020227,0.00677458,0.0070
 6886,-0.00202926,-0.00413505,-0.00186913,0.00045628,0.00116074,-0.0013
 3508,0.00723347,0.07093987||-0.00000093,-0.00000156,-0.00000189,0.0000
 0242,-0.00000073,0.00000194,0.00000076,0.00000144,-0.00000078,0.000000
 59,-0.00000605,-0.00001077,0.00000184,-0.00000183,-0.00000113,-0.00000
 088,-0.00000043,-0.00000051,-0.00000261,0.00000272,0.00000604,-0.00000
 067,-0.00000135,0.00000090,0.00000126,-0.00000080,0.00000108,0.0000020
 9,0.00000261,0.00000229,0.00000094,-0.00000003,-0.00000033,0.,-0.00000
 049,0.00000026,0.00000014,0.00000081,-0.00000071,-0.00000152,0.0000006
 7,-0.00000198,0.00000199,-0.00000002,-0.00001640,-0.00000246,-0.000000
 12,0.00000187,0.00000005,0.00000094,0.00000122,0.00000004,-0.00000021,
 0.00000275,-0.00000033,-0.00000029,0.00000091,0.00000105,0.00000023,-0
 .00000081,0.00000025,0.00000041,-0.00000072,-0.00000399,0.00000407,0.0
 0001676|||@


 WE'RE IN THE POSITION OF A VISITOR FROM ANOTHER
 DIMENSION WHO COMES TO EARTH AND SEES A CHESS MATCH.
 ASSUMING HE KNOWS IT'S A GAME, HE'S GOT TWO PROBLEMS:
 FIRST, FIGURE OUT THE RULES, AND SECOND, FIGURE OUT HOW TO WIN.
 NINETY PERCENT OF SCIENCE (INCLUDING VIRTUALLY ALL OF CHEMISRY)
 IS IN THAT SECOND CATEGORY.  THEY'RE TRYING TO APPLY
 THE LAWS THAT ARE ALREADY KNOWN.

                     -- SHELDON GLASHOW, 1979
 Job cpu time:  0 days  0 hours  0 minutes 28.0 seconds.
 File lengths (MBytes):  RWF=     50 Int=      0 D2E=      0 Chk=      2 Scr=      1
 Normal termination of Gaussian 09 at Tue Dec 03 22:25:37 2024.
