 Entering Link 1 = C:\G09W\l1.exe PID=     22336.
  
 Copyright (c) 1988,1990,1992,1993,1995,1998,2003,2009, Gaussian, Inc.
                  All Rights Reserved.
  
 This is part of the Gaussian(R) 09 program.  It is based on
 the Gaussian(R) 03 system (copyright 2003, Gaussian, Inc.),
 the Gaussian(R) 98 system (copyright 1998, Gaussian, Inc.),
 the Gaussian(R) 94 system (copyright 1995, Gaussian, Inc.),
 the Gaussian 92(TM) system (copyright 1992, Gaussian, Inc.),
 the Gaussian 90(TM) system (copyright 1990, Gaussian, Inc.),
 the Gaussian 88(TM) system (copyright 1988, Gaussian, Inc.),
 the Gaussian 86(TM) system (copyright 1986, Carnegie Mellon
 University), and the Gaussian 82(TM) system (copyright 1983,
 Carnegie Mellon University). Gaussian is a federally registered
 trademark of Gaussian, Inc.
  
 This software contains proprietary and confidential information,
 including trade secrets, belonging to Gaussian, Inc.
  
 This software is provided under written license and may be
 used, copied, transmitted, or stored only in accord with that
 written license.
  
 The following legend is applicable only to US Government
 contracts under FAR:
  
                    RESTRICTED RIGHTS LEGEND
  
 Use, reproduction and disclosure by the US Government is
 subject to restrictions as set forth in subparagraphs (a)
 and (c) of the Commercial Computer Software - Restricted
 Rights clause in FAR 52.227-19.
  
 Gaussian, Inc.
 340 Quinnipiac St., Bldg. 40, Wallingford CT 06492
  
  
 ---------------------------------------------------------------
 Warning -- This program may not be used in any manner that
 competes with the business of Gaussian, Inc. or will provide
 assistance to any competitor of Gaussian, Inc.  The licensee
 of this program is prohibited from giving any competitor of
 Gaussian, Inc. access to this program.  By using this program,
 the user acknowledges that Gaussian, Inc. is engaged in the
 business of creating and licensing software in the field of
 computational chemistry and represents and warrants to the
 licensee that it is not a competitor of Gaussian, Inc. and that
 it will not use this program in any manner prohibited above.
 ---------------------------------------------------------------
  

 Cite this work as:
 Gaussian 09, Revision A.02,
 M. J. Frisch, G. W. Trucks, H. B. Schlegel, G. E. Scuseria, 
 M. A. Robb, J. R. Cheeseman, G. Scalmani, V. Barone, B. Mennucci, 
 G. A. Petersson, H. Nakatsuji, M. Caricato, X. Li, H. P. Hratchian, 
 A. F. Izmaylov, J. Bloino, G. Zheng, J. L. Sonnenberg, M. Hada, 
 M. Ehara, K. Toyota, R. Fukuda, J. Hasegawa, M. Ishida, T. Nakajima, 
 Y. Honda, O. Kitao, H. Nakai, T. Vreven, J. A. Montgomery, Jr., 
 J. E. Peralta, F. Ogliaro, M. Bearpark, J. J. Heyd, E. Brothers, 
 K. N. Kudin, V. N. Staroverov, R. Kobayashi, J. Normand, 
 K. Raghavachari, A. Rendell, J. C. Burant, S. S. Iyengar, J. Tomasi, 
 M. Cossi, N. Rega, J. M. Millam, M. Klene, J. E. Knox, J. B. Cross, 
 V. Bakken, C. Adamo, J. Jaramillo, R. Gomperts, R. E. Stratmann, 
 O. Yazyev, A. J. Austin, R. Cammi, C. Pomelli, J. W. Ochterski, 
 R. L. Martin, K. Morokuma, V. G. Zakrzewski, G. A. Voth, 
 P. Salvador, J. J. Dannenberg, S. Dapprich, A. D. Daniels, 
 O. Farkas, J. B. Foresman, J. V. Ortiz, J. Cioslowski, 
 and D. J. Fox, Gaussian, Inc., Wallingford CT, 2009.
 
 ******************************************
 Gaussian 09:  IA32W-G09RevA.02 11-Jun-2009
                03-Dec-2024 
 ******************************************
 %chk=C:\G09W\ethoxide\transitionstate.chk
 ------------------------------------------
 # opt=qst2 freq hf/3-21g geom=connectivity
 ------------------------------------------
 1/5=1,18=20,27=202,38=1,57=2/1,3;
 2/9=110,12=2,17=6,18=5,40=1/2;
 3/5=5,11=9,16=1,25=1,30=1,71=1/1,2,3;
 4//1;
 5/5=2,38=5/2;
 6/7=2,8=2,9=2,10=2,28=1/1;
 7//1,2,3,16;
 1/5=1,18=20,27=202/3(2);
 2/9=110/2;
 99//99;
 2/9=110/2;
 3/5=5,11=9,16=1,25=1,30=1,71=1/1,2,3;
 4/5=5,16=3/1;
 5/5=2,38=5/2;
 7//1,2,3,16;
 1/5=1,18=20,27=202/3(-5);
 2/9=110/2;
 6/7=2,8=2,9=2,10=2,19=2,28=1/1;
 99/9=1/99;
 -------------------
 Title Card Required
 -------------------
 Symbolic Z-matrix:
 Charge = -1 Multiplicity = 1
 C                     2.04704  -1.10601  -1.81393 
 H                     1.67586  -2.03918  -2.22409 
 H                     1.88611  -0.323    -2.54681 
 H                     3.11291  -1.19327  -1.63248 
 C                     1.32936  -0.76658  -0.50355 
 H                     0.267    -0.64281  -0.66746 
 C                     1.54285  -1.83635   0.56988 
 H                     2.60925  -1.94921   0.7441 
 H                     1.15652  -2.78081   0.19794 
 C                     0.82534  -1.44946   1.8756 
 H                    -0.2263   -1.27252   1.68054 
 H                     0.92713  -2.22891   2.62593 
 H                     1.25857  -0.53424   2.2556 
 Br                   -2.46001   0.03241  -0.12902 
 C                     1.13676   1.66384  -0.28157 
 H                     1.26489   1.9363   -1.32596 
 H                     0.08395   1.49846  -0.09832 
 C                     1.69814   2.7609    0.62131 
 H                     2.76102   2.87713   0.44381 
 H                     1.19854   3.70592   0.43586 
 H                     1.55098   2.48123   1.65679 
 O                     1.88713   0.46658   0.02046 
 
 -------------------
 Title Card Required
 -------------------
 Symbolic Z-matrix:
 Charge = -1 Multiplicity = 1
 C                     0.21923  -1.33362   0.64487 
 H                    -0.19514  -1.44873   1.64031 
 H                     0.06913  -2.25464   0.09331 
 H                     1.28281  -1.06142   0.71675 
 C                    -0.41663  -0.14773  -0.06053 
 H                    -0.1484   -0.12166  -1.10278 
 C                    -0.07922   1.16751   0.62378 
 H                     1.01553   1.1079    0.72039 
 H                    -0.51822   1.17601   1.61597 
 C                    -0.51437   2.41261  -0.16251 
 H                    -1.59074   2.4464   -0.29085 
 H                    -0.20018   3.31235   0.35807 
 H                    -0.04972   2.41977  -1.14424 
 Br                   -2.47202  -0.42133  -0.17939 
 C                     3.48213   0.28445  -0.41942 
 H                     2.92203   0.17225  -1.37142 
 H                     4.02095   1.24463  -0.54718 
 C                     4.5812   -0.8208   -0.45063 
 H                     4.10278  -1.79484  -0.41648 
 H                     5.21394  -0.76413  -1.33632 
 H                     5.19672  -0.7211    0.4376 
 O                     2.72066   0.2074    0.73152 
 
 Iteration  1 RMS(Cart)=  0.13500605 RMS(Int)=  0.48145005
 Iteration  2 RMS(Cart)=  0.10380040 RMS(Int)=  0.43662076
 Iteration  3 RMS(Cart)=  0.07677939 RMS(Int)=  0.39957648
 Iteration  4 RMS(Cart)=  0.06191294 RMS(Int)=  0.36865285
 Iteration  5 RMS(Cart)=  0.05207775 RMS(Int)=  0.34235060
 Iteration  6 RMS(Cart)=  0.04489639 RMS(Int)=  0.32023450
 Iteration  7 RMS(Cart)=  0.04668272 RMS(Int)=  0.30256485
 Iteration  8 RMS(Cart)=  0.04674629 RMS(Int)=  0.29066794
 Iteration  9 RMS(Cart)=  0.04443487 RMS(Int)=  0.28560222
 Iteration 10 RMS(Cart)=  0.03727569 RMS(Int)=  0.28716731
 Iteration 11 RMS(Cart)=  0.02208108 RMS(Int)=  0.29186363
 Iteration 12 RMS(Cart)=  0.01345188 RMS(Int)=  0.29703662
 Iteration 13 RMS(Cart)=  0.01115470 RMS(Int)=  0.29376578
 Iteration 14 RMS(Cart)=  0.01973810 RMS(Int)=  0.28311692
 Iteration 15 RMS(Cart)=  0.01412309 RMS(Int)=  0.27828899
 Iteration 16 RMS(Cart)=  0.01035832 RMS(Int)=  0.27587471
 Iteration 17 RMS(Cart)=  0.00803784 RMS(Int)=  0.27439031
 Iteration 18 RMS(Cart)=  0.00648370 RMS(Int)=  0.27335471
 Iteration 19 RMS(Cart)=  0.00504698 RMS(Int)=  0.27262807
 Iteration 20 RMS(Cart)=  0.00388645 RMS(Int)=  0.27210953
 Iteration 21 RMS(Cart)=  0.00280921 RMS(Int)=  0.27174085
 Iteration 22 RMS(Cart)=  0.00200433 RMS(Int)=  0.27148297
 Iteration 23 RMS(Cart)=  0.00144110 RMS(Int)=  0.27130298
 Iteration 24 RMS(Cart)=  0.00102556 RMS(Int)=  0.27117725
 Iteration 25 RMS(Cart)=  0.00072580 RMS(Int)=  0.27108877
 Iteration 26 RMS(Cart)=  0.00051449 RMS(Int)=  0.27102588
 Iteration 27 RMS(Cart)=  0.00036515 RMS(Int)=  0.27098100
 Iteration 28 RMS(Cart)=  0.00025940 RMS(Int)=  0.27094891
 Iteration 29 RMS(Cart)=  0.00018443 RMS(Int)=  0.27092591
 Iteration 30 RMS(Cart)=  0.00013123 RMS(Int)=  0.27090942
 Iteration 31 RMS(Cart)=  0.00009343 RMS(Int)=  0.27089759
 Iteration 32 RMS(Cart)=  0.00006655 RMS(Int)=  0.27088910
 Iteration 33 RMS(Cart)=  0.00004743 RMS(Int)=  0.27088300
 Iteration 34 RMS(Cart)=  0.00003382 RMS(Int)=  0.27087862
 Iteration 35 RMS(Cart)=  0.00002413 RMS(Int)=  0.27087547
 Iteration 36 RMS(Cart)=  0.00001722 RMS(Int)=  0.27087322
 Iteration 37 RMS(Cart)=  0.00001229 RMS(Int)=  0.27087160
 Iteration 38 RMS(Cart)=  0.00000878 RMS(Int)=  0.27087043
 Iteration 39 RMS(Cart)=  0.00000627 RMS(Int)=  0.27086960
 Iteration 40 RMS(Cart)=  0.00000448 RMS(Int)=  0.27086900
 Iteration 41 RMS(Cart)=  0.00000320 RMS(Int)=  0.27086857
 Iteration 42 RMS(Cart)=  0.00000229 RMS(Int)=  0.27086826
 Iteration 43 RMS(Cart)=  0.00000164 RMS(Int)=  0.27086804
 Iteration 44 RMS(Cart)=  0.00000117 RMS(Int)=  0.27086788
 Iteration 45 RMS(Cart)=  0.00000084 RMS(Int)=  0.27086776

 GradGradGradGradGradGradGradGradGradGradGradGradGradGradGradGradGradGrad
 Berny optimization.
 Initialization pass.
                           ----------------------------
                           !    Initial Parameters    !
                           ! (Angstroms and Degrees)  !
 --------------------------                            --------------------------
 ! Name  Definition        TS        Reactant  Product Derivative Info.         !
 --------------------------------------------------------------------------------
 ! R1    R(1,2)             1.0846    1.0848    1.0844 estimate D2E/DX2         !
 ! R2    R(1,3)             1.0842    1.0845    1.084  estimate D2E/DX2         !
 ! R3    R(1,4)             1.0587    1.0847    1.1002 estimate D2E/DX2         !
 ! R4    R(1,5)             1.527     1.5321    1.5193 estimate D2E/DX2         !
 ! R5    R(5,6)             1.1136    1.082     1.0765 estimate D2E/DX2         !
 ! R6    R(5,7)             1.5988    1.5304    1.5205 estimate D2E/DX2         !
 ! R7    R(5,22)            2.3761    1.4513    3.2552 estimate D2E/DX2         !
 ! R8    R(6,14)            2.5985    2.8605    2.5183 estimate D2E/DX2         !
 ! R9    R(7,8)             0.9964    1.0864    1.1006 estimate D2E/DX2         !
 ! R10   R(7,9)             1.0856    1.0861    1.085  estimate D2E/DX2         !
 ! R11   R(7,10)            1.5516    1.5393    1.5355 estimate D2E/DX2         !
 ! R12   R(10,11)           1.0454    1.0841    1.0845 estimate D2E/DX2         !
 ! R13   R(10,12)           1.0863    1.0867    1.0859 estimate D2E/DX2         !
 ! R14   R(10,13)           1.0838    1.0815    1.0862 estimate D2E/DX2         !
 ! R15   R(11,14)           3.0226    3.157     3.0022 estimate D2E/DX2         !
 ! R16   R(14,17)           4.9226    2.9363    6.7134 estimate D2E/DX2         !
 ! R17   R(15,16)           1.0986    1.0869    1.1102 estimate D2E/DX2         !
 ! R18   R(15,17)           1.0908    1.0814    1.1084 estimate D2E/DX2         !
 ! R19   R(15,18)           1.5434    1.5277    1.559  estimate D2E/DX2         !
 ! R20   R(15,22)           1.362     1.4449    1.3822 estimate D2E/DX2         !
 ! R21   R(18,19)           1.0848    1.0839    1.0857 estimate D2E/DX2         !
 ! R22   R(18,20)           1.0874    1.0849    1.09   estimate D2E/DX2         !
 ! R23   R(18,21)           1.0839    1.0826    1.0852 estimate D2E/DX2         !
 ! R24   R(4,22)            2.2738    2.6438    1.9177 estimate D2E/DX2         !
 ! R25   R(5,14)            3.0272    3.8908    2.0769 estimate D2E/DX2         !
 ! R26   R(8,22)            2.1965    2.6232    1.9283 estimate D2E/DX2         !
 ! A1    A(2,1,3)         109.4574  108.3488  108.9044 estimate D2E/DX2         !
 ! A2    A(2,1,4)         114.9257  109.2845  109.6149 estimate D2E/DX2         !
 ! A3    A(2,1,5)         103.8824  110.7124  110.4354 estimate D2E/DX2         !
 ! A4    A(3,1,4)         102.7972  108.4778  112.1671 estimate D2E/DX2         !
 ! A5    A(3,1,5)         116.2381  110.3961  111.6543 estimate D2E/DX2         !
 ! A6    A(4,1,5)         109.9741  109.5752  103.9935 estimate D2E/DX2         !
 ! A7    A(1,5,6)         102.2712  110.8358  111.3541 estimate D2E/DX2         !
 ! A8    A(1,5,7)         115.5254  112.3136  111.9222 estimate D2E/DX2         !
 ! A9    A(1,5,22)         86.872   108.4826   64.4572 estimate D2E/DX2         !
 ! A10   A(6,5,7)         142.1563  108.8544  111.0682 estimate D2E/DX2         !
 ! A11   A(6,5,22)        103.0245  109.5623   89.5868 estimate D2E/DX2         !
 ! A12   A(7,5,22)         81.7156  106.6825   65.3075 estimate D2E/DX2         !
 ! A13   A(5,6,14)        101.6794  159.1458   53.9997 estimate D2E/DX2         !
 ! A14   A(5,7,8)         109.0236  108.7848  102.3206 estimate D2E/DX2         !
 ! A15   A(5,7,9)         101.0186  108.5435  109.1804 estimate D2E/DX2         !
 ! A16   A(5,7,10)        129.1433  110.7475  114.0825 estimate D2E/DX2         !
 ! A17   A(8,7,9)         113.5767  108.284   108.8202 estimate D2E/DX2         !
 ! A18   A(8,7,10)         96.5145  110.3427  111.7612 estimate D2E/DX2         !
 ! A19   A(9,7,10)        107.9676  110.0753  110.3185 estimate D2E/DX2         !
 ! A20   A(7,10,11)       107.1525  109.9117  111.5375 estimate D2E/DX2         !
 ! A21   A(7,10,12)       112.2573  111.208   110.143  estimate D2E/DX2         !
 ! A22   A(7,10,13)       109.6917  108.9056  110.3003 estimate D2E/DX2         !
 ! A23   A(11,10,12)      107.1956  109.4005  108.5461 estimate D2E/DX2         !
 ! A24   A(11,10,13)      112.4914  108.281   108.5068 estimate D2E/DX2         !
 ! A25   A(12,10,13)      108.0872  109.0775  107.7015 estimate D2E/DX2         !
 ! A26   A(10,11,14)      124.5254  148.9742  104.9036 estimate D2E/DX2         !
 ! A27   A(6,14,11)        77.8577   48.3794   66.538  estimate D2E/DX2         !
 ! A28   A(6,14,17)        32.1343   45.0794   19.6044 estimate D2E/DX2         !
 ! A29   A(11,14,17)       62.8616   65.6309   58.467  estimate D2E/DX2         !
 ! A30   A(16,15,17)      103.4134  108.4176  103.5296 estimate D2E/DX2         !
 ! A31   A(16,15,18)      107.9776  110.1546  105.4766 estimate D2E/DX2         !
 ! A32   A(16,15,22)      118.1644  110.3246  115.4964 estimate D2E/DX2         !
 ! A33   A(17,15,18)      115.1531  111.5578  105.612  estimate D2E/DX2         !
 ! A34   A(17,15,22)      108.8344  110.0881  114.3352 estimate D2E/DX2         !
 ! A35   A(18,15,22)      103.7933  106.2996  111.4409 estimate D2E/DX2         !
 ! A36   A(14,17,15)      100.9711  156.6485   46.256  estimate D2E/DX2         !
 ! A37   A(15,18,19)      109.4328  109.912   108.95   estimate D2E/DX2         !
 ! A38   A(15,18,20)      111.8402  110.8098  112.8708 estimate D2E/DX2         !
 ! A39   A(15,18,21)      108.9129  109.2577  108.562  estimate D2E/DX2         !
 ! A40   A(19,18,20)      109.2125  109.2797  109.1479 estimate D2E/DX2         !
 ! A41   A(19,18,21)      108.1925  108.52    107.8546 estimate D2E/DX2         !
 ! A42   A(20,18,21)      109.1772  109.0207  109.3315 estimate D2E/DX2         !
 ! A43   A(5,22,15)       103.2464  115.4037  109.5385 estimate D2E/DX2         !
 ! A44   A(1,4,22)        105.5453   66.3277  152.7498 estimate D2E/DX2         !
 ! A45   A(1,5,14)        127.9677  125.7356  109.751  estimate D2E/DX2         !
 ! A46   A(6,5,14)         57.2061   15.1725  101.2076 estimate D2E/DX2         !
 ! A47   A(7,5,14)         95.3809  102.2328  111.0579 estimate D2E/DX2         !
 ! A48   A(7,8,22)        107.1346   65.7875  154.8679 estimate D2E/DX2         !
 ! A49   A(4,22,8)         75.4896   57.7684   69.2638 estimate D2E/DX2         !
 ! A50   A(4,22,15)       117.3411  129.0734  116.3297 estimate D2E/DX2         !
 ! A51   A(8,22,15)       145.083   164.5205  117.1495 estimate D2E/DX2         !
 ! D1    D(2,1,5,6)      -118.0452  -61.2397 -169.9743 estimate D2E/DX2         !
 ! D2    D(2,1,5,7)        60.0188   60.7629   65.0375 estimate D2E/DX2         !
 ! D3    D(2,1,5,22)      139.299   178.4318  111.2953 estimate D2E/DX2         !
 ! D4    D(3,1,5,6)         2.2438   58.7374  -48.6464 estimate D2E/DX2         !
 ! D5    D(3,1,5,7)      -179.6923 -179.26   -173.6346 estimate D2E/DX2         !
 ! D6    D(3,1,5,22)     -100.412   -61.591  -127.3768 estimate D2E/DX2         !
 ! D7    D(4,1,5,6)       118.4686  178.15     72.506  estimate D2E/DX2         !
 ! D8    D(4,1,5,7)       -63.4675  -59.8474  -52.4822 estimate D2E/DX2         !
 ! D9    D(4,1,5,22)       15.8127   57.8216   -6.2244 estimate D2E/DX2         !
 ! D10   D(1,5,6,14)      127.5048 -169.813   116.5747 estimate D2E/DX2         !
 ! D11   D(7,5,6,14)      -49.6469   66.1838 -117.9608 estimate D2E/DX2         !
 ! D12   D(22,5,6,14)    -142.8965  -50.1291  178.8126 estimate D2E/DX2         !
 ! D13   D(1,5,7,8)        59.9532   57.7063   50.2953 estimate D2E/DX2         !
 ! D14   D(1,5,7,9)       -59.9255  -59.9146  -64.8925 estimate D2E/DX2         !
 ! D15   D(1,5,7,10)      175.7621  179.1396  171.1778 estimate D2E/DX2         !
 ! D16   D(6,5,7,8)      -123.1314 -179.1712  -74.8509 estimate D2E/DX2         !
 ! D17   D(6,5,7,9)       116.99     63.2079  169.9612 estimate D2E/DX2         !
 ! D18   D(6,5,7,10)       -7.3224  -57.738    46.0316 estimate D2E/DX2         !
 ! D19   D(22,5,7,8)      -22.5405  -61.0265    4.4511 estimate D2E/DX2         !
 ! D20   D(22,5,7,9)     -142.4192 -178.6474 -110.7368 estimate D2E/DX2         !
 ! D21   D(22,5,7,10)      93.2685   60.4067  125.3336 estimate D2E/DX2         !
 ! D22   D(1,5,22,15)     105.891    97.5165  113.8457 estimate D2E/DX2         !
 ! D23   D(6,5,22,15)       4.0126  -23.6004   -0.1728 estimate D2E/DX2         !
 ! D24   D(7,5,22,15)    -137.7456 -141.2796 -113.6875 estimate D2E/DX2         !
 ! D25   D(5,6,14,11)      37.7178  -38.5594   82.115  estimate D2E/DX2         !
 ! D26   D(5,6,14,17)      95.3971   57.5562   20.8411 estimate D2E/DX2         !
 ! D27   D(5,7,10,11)      62.1756   55.6393   62.1781 estimate D2E/DX2         !
 ! D28   D(5,7,10,12)     179.6026  176.9387 -177.2257 estimate D2E/DX2         !
 ! D29   D(5,7,10,13)     -60.2143  -62.8309  -58.4749 estimate D2E/DX2         !
 ! D30   D(8,7,10,11)    -176.7629  176.1501  177.6507 estimate D2E/DX2         !
 ! D31   D(8,7,10,12)     -59.3359  -62.5505  -61.7531 estimate D2E/DX2         !
 ! D32   D(8,7,10,13)      60.8472   57.6799   56.9977 estimate D2E/DX2         !
 ! D33   D(9,7,10,11)     -59.3599  -64.3951  -61.1371 estimate D2E/DX2         !
 ! D34   D(9,7,10,12)      58.0672   56.9043   59.4591 estimate D2E/DX2         !
 ! D35   D(9,7,10,13)     178.2502  177.1347  178.21   estimate D2E/DX2         !
 ! D36   D(7,10,11,14)    -34.0903  -44.7165  -26.4506 estimate D2E/DX2         !
 ! D37   D(12,10,11,14)  -154.7848 -167.093  -147.9775 estimate D2E/DX2         !
 ! D38   D(13,10,11,14)    86.5378   74.1381   95.2466 estimate D2E/DX2         !
 ! D39   D(10,11,14,6)     -2.3894   20.7713  -30.1838 estimate D2E/DX2         !
 ! D40   D(10,11,14,17)   -32.7277  -29.8454   -9.9896 estimate D2E/DX2         !
 ! D41   D(6,14,17,15)     -7.2415   10.8197  -76.2855 estimate D2E/DX2         !
 ! D42   D(11,14,17,15)   104.5763   65.5066  174.4122 estimate D2E/DX2         !
 ! D43   D(16,15,17,14)    60.814    78.8348   64.3295 estimate D2E/DX2         !
 ! D44   D(18,15,17,14)   178.3639 -159.6967  174.9523 estimate D2E/DX2         !
 ! D45   D(22,15,17,14)   -65.6301  -41.9347  -62.1645 estimate D2E/DX2         !
 ! D46   D(16,15,18,19)   -64.9346  -61.7927  -65.8686 estimate D2E/DX2         !
 ! D47   D(16,15,18,20)    56.2188   59.0946   55.5459 estimate D2E/DX2         !
 ! D48   D(16,15,18,21)   176.9764  179.2336  176.921  estimate D2E/DX2         !
 ! D49   D(17,15,18,19)  -179.8828  177.7519 -175.1022 estimate D2E/DX2         !
 ! D50   D(17,15,18,20)   -58.7294  -61.3608  -53.6877 estimate D2E/DX2         !
 ! D51   D(17,15,18,21)    62.0282   58.7782   67.6875 estimate D2E/DX2         !
 ! D52   D(22,15,18,19)    61.2669   57.7328   60.1887 estimate D2E/DX2         !
 ! D53   D(22,15,18,20)  -177.5797  178.6201 -178.3967 estimate D2E/DX2         !
 ! D54   D(22,15,18,21)   -56.8221  -61.2409  -57.0216 estimate D2E/DX2         !
 ! D55   D(16,15,22,5)    -41.0788  -73.7074   -2.4596 estimate D2E/DX2         !
 ! D56   D(17,15,22,5)     76.3496   45.9097  117.5501 estimate D2E/DX2         !
 ! D57   D(18,15,22,5)   -160.5465  166.878  -122.7844 estimate D2E/DX2         !
 ! D58   D(2,1,4,22)     -133.9353 -150.2341  -96.8232 estimate D2E/DX2         !
 ! D59   D(3,1,4,22)      107.2331   91.8248  142.0725 estimate D2E/DX2         !
 ! D60   D(5,1,4,22)      -17.1648  -28.7604   21.2636 estimate D2E/DX2         !
 ! D61   D(2,1,5,14)      -60.277   -64.5089  -58.7441 estimate D2E/DX2         !
 ! D62   D(3,1,5,14)       60.012    55.4683   62.5838 estimate D2E/DX2         !
 ! D63   D(4,1,5,14)      176.2368  174.8809 -176.2638 estimate D2E/DX2         !
 ! D64   D(1,4,22,8)       70.606   103.1756    7.1521 estimate D2E/DX2         !
 ! D65   D(1,4,22,15)     -74.4488  -59.6882 -103.7666 estimate D2E/DX2         !
 ! D66   D(14,5,7,8)     -163.1809 -164.9893  173.3399 estimate D2E/DX2         !
 ! D67   D(14,5,7,9)       76.9405   77.3898   58.1521 estimate D2E/DX2         !
 ! D68   D(14,5,7,10)     -47.3719  -43.5561  -65.7775 estimate D2E/DX2         !
 ! D69   D(5,7,8,22)       25.4298   30.5554  -16.2757 estimate D2E/DX2         !
 ! D70   D(9,7,8,22)      137.2102  148.3409   99.1743 estimate D2E/DX2         !
 ! D71   D(10,7,8,22)    -109.9226  -91.1248 -138.7491 estimate D2E/DX2         !
 ! D72   D(7,8,22,4)      -76.0985 -105.1272  -10.8622 estimate D2E/DX2         !
 ! D73   D(7,8,22,15)      41.1645   15.8849   98.9437 estimate D2E/DX2         !
 ! D74   D(16,15,22,4)     15.6789   -9.996    37.4012 estimate D2E/DX2         !
 ! D75   D(16,15,22,8)    -88.675  -120.9528  -41.6351 estimate D2E/DX2         !
 ! D76   D(17,15,22,4)    133.1073  109.6211  157.4109 estimate D2E/DX2         !
 ! D77   D(17,15,22,8)     28.7534   -1.3357   78.3745 estimate D2E/DX2         !
 ! D78   D(18,15,22,4)   -103.7887 -129.4106  -82.9236 estimate D2E/DX2         !
 ! D79   D(18,15,22,8)    151.8573  119.6325 -161.96   estimate D2E/DX2         !
 --------------------------------------------------------------------------------
 Trust Radius=3.00D-01 FncErr=1.00D-07 GrdErr=1.00D-07
 Number of steps in this run= 132 maximum allowed number of steps= 132.
 Search for a saddle point of order  1.
 GradGradGradGradGradGradGradGradGradGradGradGradGradGradGradGradGradGrad

                          Input orientation:                          
 ---------------------------------------------------------------------
 Center     Atomic      Atomic             Coordinates (Angstroms)
 Number     Number       Type             X           Y           Z
 ---------------------------------------------------------------------
      1          6           0        1.835636   -0.952399   -1.795875
      2          1           0        1.970379   -2.006022   -2.015100
      3          1           0        1.572269   -0.424964   -2.705835
      4          1           0        2.709952   -0.447635   -1.476923
      5          6           0        0.790909   -0.940570   -0.682260
      6          1           0       -0.049268   -0.380599   -1.151881
      7          6           0        1.199884   -1.716680    0.654330
      8          1           0        2.023924   -1.302329    1.031281
      9          1           0        1.354655   -2.720847    0.272068
     10          6           0        0.429507   -1.828913    1.996475
     11          1           0       -0.475239   -2.311698    1.793222
     12          1           0        0.959864   -2.434471    2.725925
     13          1           0        0.286577   -0.841200    2.419233
     14         35           0       -2.041082   -2.006128   -0.774012
     15          6           0        1.341843    1.899862    0.100294
     16          1           0        0.870349    2.016355   -0.885092
     17          1           0        0.495762    1.912272    0.788713
     18          6           0        2.353462    3.050967    0.283397
     19          1           0        3.150655    2.950187   -0.445359
     20          1           0        1.883578    4.024769    0.167393
     21          1           0        2.789242    2.981566    1.273446
     22          8           0        2.080174    0.778891    0.331199
 ---------------------------------------------------------------------
                    Distance matrix (angstroms):
                    1          2          3          4          5
     1  C    0.000000
     2  H    1.084590   0.000000
     3  H    1.084240   1.770692   0.000000
     4  H    1.058748   1.806980   1.674832   0.000000
     5  C    1.527001   2.074319   2.229625   2.134760   0.000000
     6  H    2.072329   2.732420   2.246358   2.779108   1.113557
     7  C    2.644203   2.793427   3.619103   2.903966   1.598775
     8  H    2.854946   3.127057   3.865203   2.737193   2.141826
     9  H    2.763175   2.474111   3.766475   3.172269   2.097126
    10  C    4.138526   4.300975   5.038720   4.378682   2.845239
    11  H    4.479895   4.536276   5.290895   4.930925   3.100183
    12  H    4.838408   4.866418   5.823845   4.967319   3.725052
    13  H    4.492113   4.884189   5.300243   4.605179   3.143800
    14  Br   4.145297   4.199061   4.391847   5.049288   3.027211
    15  C    3.460446   4.486188   3.651339   3.141668   2.997327
    16  H    3.251893   4.320475   3.125354   3.131397   2.964938
    17  H    4.084324   5.038739   4.339748   3.950305   3.223287
    18  C    4.540755   5.568032   4.650577   3.932686   4.393908
    19  H    4.333976   5.331149   4.358061   3.578203   4.556590
    20  H    5.350600   6.414144   5.305890   4.836224   5.154650
    21  H    5.079978   6.030017   5.377745   4.396616   4.816769
    22  O    2.753473   3.643201   3.306177   2.273828   2.376099
                    6          7          8          9         10
     6  H    0.000000
     7  C    2.570582   0.000000
     8  H    3.148636   0.996403   0.000000
     9  H    3.078213   1.085555   1.742561   0.000000
    10  C    3.498426   1.551590   1.936764   2.150588   0.000000
    11  H    3.547426   2.111199   2.800928   2.414503   1.045447
    12  H    4.502679   2.205525   2.299084   2.501857   1.086314
    13  H    3.616324   2.171515   2.270996   3.046995   1.083849
    14  Br   2.598548   3.553562   4.503186   3.624381   3.716290
    15  C    2.950192   3.661486   3.403821   4.623918   4.281544
    16  H    2.581135   4.051415   4.002110   4.900475   4.825334
    17  H    3.052904   3.699073   3.567601   4.740297   3.931863
    18  C    4.428179   4.919226   4.429347   5.857608   5.518103
    19  H    4.672559   5.176338   4.640462   5.991740   6.017225
    20  H    4.988350   5.802480   5.398516   6.767130   6.302813
    21  H    5.024291   4.998288   4.358453   5.964756   5.406646
    22  O    2.842264   2.665933   2.196533   3.574639   3.506920
                   11         12         13         14         15
    11  H    0.000000
    12  H    1.715964   0.000000
    13  H    1.770485   1.756670   0.000000
    14  Br   3.022569   4.630196   4.119692   0.000000
    15  C    4.889277   5.081957   3.742257   5.240739   0.000000
    16  H    5.264600   5.732130   4.407377   4.966803   1.098573
    17  H    4.449024   4.781460   3.206862   4.922555   1.090838
    18  C    6.248144   6.164259   4.897221   6.782649   1.543354
    19  H    6.770952   6.622020   5.548283   7.185207   2.161648
    20  H    6.954003   7.008646   5.594538   7.256784   2.193903
    21  H    6.240645   5.898286   4.710595   7.238867   2.154375
    22  O    4.268418   4.161190   3.193990   5.095348   1.361993
                   16         17         18         19         20
    16  H    0.000000
    17  H    1.718363   0.000000
    18  C    2.153001   2.236743   0.000000
    19  H    2.503039   3.106229   1.084785   0.000000
    20  H    2.483562   2.602828   1.087446   1.770783   0.000000
    21  H    3.045171   2.576510   1.083936   1.756671   1.769704
    22  O    2.115267   2.001057   2.288951   2.542341   3.255949
                   21         22
    21  H    0.000000
    22  O    2.498476   0.000000
 Stoichiometry    C6H14BrO(1-)
 Framework group  C1[X(C6H14BrO)]
 Deg. of freedom    60
 Full point group                 C1      NOp   1
 Largest Abelian subgroup         C1      NOp   1
 Largest concise Abelian subgroup C1      NOp   1
                         Standard orientation:                         
 ---------------------------------------------------------------------
 Center     Atomic      Atomic             Coordinates (Angstroms)
 Number     Number       Type             X           Y           Z
 ---------------------------------------------------------------------
      1          6           0        0.823906   -0.437604    2.146502
      2          1           0        0.161905    0.009050    2.880390
      3          1           0        0.877459   -1.507745    2.312355
      4          1           0        1.836862   -0.138143    2.218551
      5          6           0        0.241692    0.009740    0.807606
      6          1           0       -0.031978   -0.959630    0.332805
      7          6           0        0.177786    1.590632    0.577873
      8          1           0        1.100470    1.963535    0.627043
      9          1           0       -0.458006    1.894741    1.403534
     10          6           0       -0.264223    2.380137   -0.682579
     11          1           0       -1.267865    2.145296   -0.857257
     12          1           0       -0.206707    3.454979   -0.536001
     13          1           0        0.374119    2.119951   -1.518970
     14         35           0       -2.517939   -0.550380   -0.303568
     15          6           0        2.701595   -0.707143   -0.747684
     16          1           0        2.313207   -1.692951   -0.457513
     17          1           0        2.203003   -0.508233   -1.697299
     18          6           0        4.240074   -0.804394   -0.822288
     19          1           0        4.637417   -1.005004    0.166971
     20          1           0        4.563341   -1.588018   -1.503442
     21          1           0        4.636268    0.146449   -1.159697
     22          8           0        2.482921    0.342602    0.092103
 ---------------------------------------------------------------------
 Rotational constants (GHZ):      1.6666494      0.4548758      0.4345035
 Standard basis: 3-21G (6D, 7F)
 There are   114 symmetry adapted basis functions of A   symmetry.
 Integral buffers will be    262144 words long.
 Raffenetti 1 integral format.
 Two-electron integral symmetry is turned on.
   114 basis functions,   204 primitive gaussians,   114 cartesian basis functions
    47 alpha electrons       47 beta electrons
       nuclear repulsion energy       563.3169019754 Hartrees.
 NAtoms=   22 NActive=   22 NUniq=   22 SFac= 7.50D-01 NAtFMM=   80 NAOKFM=F Big=F
 One-electron integrals computed using PRISM.
 NBasis=   114 RedAO= T  NBF=   114
 NBsUse=   114 1.00D-06 NBFU=   114
 Harris functional with IExCor=  205 diagonalized for initial guess.
 ExpMin= 1.65D-01 ExpMax= 6.10D+03 ExpMxC= 6.10D+03 IAcc=1 IRadAn=         1 AccDes= 0.00D+00
 HarFok:  IExCor=  205 AccDes= 0.00D+00 IRadAn=         1 IDoV= 1
 ScaDFX=  1.000000  1.000000  1.000000  1.000000
 FoFCou: FMM=F IPFlag=           0 FMFlag=      100000 FMFlg1=           0
         NFxFlg=           0 DoJE=T BraDBF=F KetDBF=T FulRan=T
         Omega=  0.000000  0.000000  1.000000  0.000000  0.000000 ICntrl=     500 IOpCl=  0
         NMat0=    1 NMatS0=    1 NMatT0=    0 NMatD0=    1 NMtDS0=    0 NMtDT0=    0
         I1Cent=           4 NGrid=           0.
 Petite list used in FoFCou.
 Initial guess orbital symmetries:
       Occupied  (A) (A) (A) (A) (A) (A) (A) (A) (A) (A) (A) (A)
                 (A) (A) (A) (A) (A) (A) (A) (A) (A) (A) (A) (A)
                 (A) (A) (A) (A) (A) (A) (A) (A) (A) (A) (A) (A)
                 (A) (A) (A) (A) (A) (A) (A) (A) (A) (A) (A)
       Virtual   (A) (A) (A) (A) (A) (A) (A) (A) (A) (A) (A) (A)
                 (A) (A) (A) (A) (A) (A) (A) (A) (A) (A) (A) (A)
                 (A) (A) (A) (A) (A) (A) (A) (A) (A) (A) (A) (A)
                 (A) (A) (A) (A) (A) (A) (A) (A) (A) (A) (A) (A)
                 (A) (A) (A) (A) (A) (A) (A) (A) (A) (A) (A) (A)
                 (A) (A) (A) (A) (A) (A) (A)
 The electronic state of the initial guess is 1-A.
 Requested convergence on RMS density matrix=1.00D-08 within 128 cycles.
 Requested convergence on MAX density matrix=1.00D-06.
 Requested convergence on             energy=1.00D-06.
 No special actions if energy rises.
 Keep R1 ints in memory in canonical form, NReq=22365846.
 SCF Done:  E(RHF) =  -2868.41780597     A.U. after   15 cycles
             Convg  =    0.4482D-08             -V/T =  1.9971

 **********************************************************************

            Population analysis using the SCF density.

 **********************************************************************

 Orbital symmetries:
       Occupied  (A) (A) (A) (A) (A) (A) (A) (A) (A) (A) (A) (A)
                 (A) (A) (A) (A) (A) (A) (A) (A) (A) (A) (A) (A)
                 (A) (A) (A) (A) (A) (A) (A) (A) (A) (A) (A) (A)
                 (A) (A) (A) (A) (A) (A) (A) (A) (A) (A) (A)
       Virtual   (A) (A) (A) (A) (A) (A) (A) (A) (A) (A) (A) (A)
                 (A) (A) (A) (A) (A) (A) (A) (A) (A) (A) (A) (A)
                 (A) (A) (A) (A) (A) (A) (A) (A) (A) (A) (A) (A)
                 (A) (A) (A) (A) (A) (A) (A) (A) (A) (A) (A) (A)
                 (A) (A) (A) (A) (A) (A) (A) (A) (A) (A) (A) (A)
                 (A) (A) (A) (A) (A) (A) (A)
 The electronic state is 1-A.
 Alpha  occ. eigenvalues -- -486.45770 -64.47116 -57.65691 -57.65672 -57.65664
 Alpha  occ. eigenvalues --  -20.17897 -11.17554 -11.05951 -11.05640 -11.04038
 Alpha  occ. eigenvalues --  -11.02914 -11.01052  -9.46440  -7.03982  -7.03898
 Alpha  occ. eigenvalues --   -7.03868  -2.76774  -2.76751  -2.76718  -2.76629
 Alpha  occ. eigenvalues --   -2.76626  -1.08861  -0.95841  -0.89418  -0.83170
 Alpha  occ. eigenvalues --   -0.75845  -0.69460  -0.66728  -0.65861  -0.52949
 Alpha  occ. eigenvalues --   -0.50564  -0.48617  -0.47229  -0.45942  -0.43647
 Alpha  occ. eigenvalues --   -0.40151  -0.39545  -0.38720  -0.37922  -0.36081
 Alpha  occ. eigenvalues --   -0.34196  -0.31600  -0.18546  -0.16931  -0.14098
 Alpha  occ. eigenvalues --   -0.14014  -0.13220
 Alpha virt. eigenvalues --    0.21297   0.37751   0.39081   0.41689   0.42230
 Alpha virt. eigenvalues --    0.42889   0.45819   0.47096   0.47959   0.48580
 Alpha virt. eigenvalues --    0.49303   0.50302   0.50954   0.51821   0.53038
 Alpha virt. eigenvalues --    0.54199   0.55420   0.57533   0.61135   0.66756
 Alpha virt. eigenvalues --    0.95866   0.98734   1.03062   1.05484   1.06489
 Alpha virt. eigenvalues --    1.08368   1.09978   1.10889   1.11617   1.13991
 Alpha virt. eigenvalues --    1.14495   1.15508   1.16567   1.18315   1.21647
 Alpha virt. eigenvalues --    1.23515   1.25986   1.30954   1.33454   1.37598
 Alpha virt. eigenvalues --    1.39314   1.40839   1.44429   1.45075   1.46857
 Alpha virt. eigenvalues --    1.48451   1.49798   1.50345   1.51047   1.51711
 Alpha virt. eigenvalues --    1.52627   1.57050   1.57642   1.61700   1.63153
 Alpha virt. eigenvalues --    1.66282   1.89891   2.04163   2.13382   2.23830
 Alpha virt. eigenvalues --    2.28991   2.33907   2.40993   2.49776   2.60552
 Alpha virt. eigenvalues --    3.59826  24.35589
          Condensed to atoms (all electrons):
              1          2          3          4          5          6
     1  C    5.555979   0.338461   0.376885   0.331289   0.210508  -0.055220
     2  H    0.338461   0.542938  -0.025161  -0.007206  -0.057612   0.002412
     3  H    0.376885  -0.025161   0.500414  -0.028358  -0.033396  -0.001635
     4  H    0.331289  -0.007206  -0.028358   0.408959  -0.033784   0.002361
     5  C    0.210508  -0.057612  -0.033396  -0.033784   5.331154   0.342989
     6  H   -0.055220   0.002412  -0.001635   0.002361   0.342989   0.352084
     7  C   -0.075690   0.000147   0.001698   0.000767   0.285602  -0.000794
     8  H    0.000577   0.000042   0.000023   0.000722  -0.041361   0.000581
     9  H   -0.000454   0.003219  -0.000018  -0.000095  -0.070912   0.000420
    10  C    0.001228  -0.000030  -0.000015   0.000011  -0.023118  -0.000412
    11  H   -0.000003   0.000000   0.000000  -0.000001  -0.000921  -0.000042
    12  H   -0.000026   0.000000   0.000000   0.000000   0.001951   0.000001
    13  H   -0.000018   0.000001   0.000000  -0.000004  -0.001439   0.000039
    14  Br   0.001784  -0.000173   0.000054   0.000022  -0.005958   0.014912
    15  C    0.001296   0.000070   0.000035  -0.003006  -0.002752  -0.000598
    16  H    0.000343  -0.000088   0.000214  -0.000819  -0.009104   0.002120
    17  H   -0.000070   0.000004  -0.000002   0.000387  -0.000633   0.000244
    18  C   -0.000076   0.000002   0.000000  -0.000209   0.001366  -0.000074
    19  H   -0.000050   0.000000   0.000000   0.000319  -0.000005   0.000000
    20  H    0.000001   0.000000   0.000000   0.000010  -0.000037   0.000003
    21  H    0.000003   0.000000   0.000000  -0.000014  -0.000025   0.000001
    22  O   -0.019835   0.000857   0.000111   0.024114   0.088885  -0.002162
              7          8          9         10         11         12
     1  C   -0.075690   0.000577  -0.000454   0.001228  -0.000003  -0.000026
     2  H    0.000147   0.000042   0.003219  -0.000030   0.000000   0.000000
     3  H    0.001698   0.000023  -0.000018  -0.000015   0.000000   0.000000
     4  H    0.000767   0.000722  -0.000095   0.000011  -0.000001   0.000000
     5  C    0.285602  -0.041361  -0.070912  -0.023118  -0.000921   0.001951
     6  H   -0.000794   0.000581   0.000420  -0.000412  -0.000042   0.000001
     7  C    5.388393   0.355004   0.351255   0.252683  -0.048325  -0.039034
     8  H    0.355004   0.433942  -0.018364  -0.063403   0.004664  -0.001284
     9  H    0.351255  -0.018364   0.582088  -0.041901  -0.002110  -0.001887
    10  C    0.252683  -0.063403  -0.041901   5.398579   0.360021   0.364119
    11  H   -0.048325   0.004664  -0.002110   0.360021   0.450976  -0.027703
    12  H   -0.039034  -0.001284  -0.001887   0.364119  -0.027703   0.569996
    13  H   -0.046069  -0.001430   0.003761   0.377010  -0.017532  -0.030276
    14  Br  -0.008474   0.000449   0.000893  -0.007652   0.016508   0.000205
    15  C    0.000947  -0.002072   0.000009  -0.000087   0.000003   0.000001
    16  H    0.000195   0.000211  -0.000001  -0.000013   0.000000   0.000000
    17  H   -0.000558  -0.000042  -0.000016   0.000333  -0.000005   0.000000
    18  C   -0.000016   0.000006   0.000001  -0.000003   0.000000   0.000000
    19  H   -0.000002  -0.000001   0.000000   0.000000   0.000000   0.000000
    20  H    0.000000   0.000000   0.000000   0.000000   0.000000   0.000000
    21  H   -0.000001   0.000023   0.000000   0.000000   0.000000   0.000000
    22  O   -0.018523   0.018402   0.001250  -0.001293  -0.000018  -0.000006
             13         14         15         16         17         18
     1  C   -0.000018   0.001784   0.001296   0.000343  -0.000070  -0.000076
     2  H    0.000001  -0.000173   0.000070  -0.000088   0.000004   0.000002
     3  H    0.000000   0.000054   0.000035   0.000214  -0.000002   0.000000
     4  H   -0.000004   0.000022  -0.003006  -0.000819   0.000387  -0.000209
     5  C   -0.001439  -0.005958  -0.002752  -0.009104  -0.000633   0.001366
     6  H    0.000039   0.014912  -0.000598   0.002120   0.000244  -0.000074
     7  C   -0.046069  -0.008474   0.000947   0.000195  -0.000558  -0.000016
     8  H   -0.001430   0.000449  -0.002072   0.000211  -0.000042   0.000006
     9  H    0.003761   0.000893   0.000009  -0.000001  -0.000016   0.000001
    10  C    0.377010  -0.007652  -0.000087  -0.000013   0.000333  -0.000003
    11  H   -0.017532   0.016508   0.000003   0.000000  -0.000005   0.000000
    12  H   -0.030276   0.000205   0.000001   0.000000   0.000000   0.000000
    13  H    0.500685   0.000036   0.000186   0.000011  -0.000341   0.000013
    14  Br   0.000036  35.869484   0.000029  -0.000051   0.000003   0.000000
    15  C    0.000186   0.000029   4.907685   0.313547   0.354999   0.222869
    16  H    0.000011  -0.000051   0.313547   0.805512  -0.080250  -0.072347
    17  H   -0.000341   0.000003   0.354999  -0.080250   0.711578  -0.051841
    18  C    0.000013   0.000000   0.222869  -0.072347  -0.051841   5.543366
    19  H    0.000000   0.000000  -0.039039  -0.006283   0.004053   0.370840
    20  H   -0.000001   0.000000  -0.031219   0.004597   0.003522   0.291881
    21  H    0.000002   0.000000  -0.040712   0.005479  -0.005322   0.368056
    22  O    0.001921   0.000035   0.294590  -0.040008  -0.053352  -0.081779
             19         20         21         22
     1  C   -0.000050   0.000001   0.000003  -0.019835
     2  H    0.000000   0.000000   0.000000   0.000857
     3  H    0.000000   0.000000   0.000000   0.000111
     4  H    0.000319   0.000010  -0.000014   0.024114
     5  C   -0.000005  -0.000037  -0.000025   0.088885
     6  H    0.000000   0.000003   0.000001  -0.002162
     7  C   -0.000002   0.000000  -0.000001  -0.018523
     8  H   -0.000001   0.000000   0.000023   0.018402
     9  H    0.000000   0.000000   0.000000   0.001250
    10  C    0.000000   0.000000   0.000000  -0.001293
    11  H    0.000000   0.000000   0.000000  -0.000018
    12  H    0.000000   0.000000   0.000000  -0.000006
    13  H    0.000000  -0.000001   0.000002   0.001921
    14  Br   0.000000   0.000000   0.000000   0.000035
    15  C   -0.039039  -0.031219  -0.040712   0.294590
    16  H   -0.006283   0.004597   0.005479  -0.040008
    17  H    0.004053   0.003522  -0.005322  -0.053352
    18  C    0.370840   0.291881   0.368056  -0.081779
    19  H    0.554258  -0.028683  -0.031276   0.003517
    20  H   -0.028683   0.665192  -0.028353   0.003497
    21  H   -0.031276  -0.028353   0.548613   0.004227
    22  O    0.003517   0.003497   0.004227   8.532966
 Mulliken atomic charges:
              1
     1  C   -0.666910
     2  H    0.202117
     3  H    0.209150
     4  H    0.304536
     5  C    0.018600
     6  H    0.342771
     7  C   -0.399204
     8  H    0.313309
     9  H    0.192859
    10  C   -0.616057
    11  H    0.264488
    12  H    0.163944
    13  H    0.213443
    14  Br  -0.882105
    15  C    0.023219
    16  H    0.076737
    17  H    0.117311
    18  C   -0.592055
    19  H    0.172352
    20  H    0.119590
    21  H    0.179300
    22  O   -0.757396
 Sum of Mulliken atomic charges =  -1.00000
 Mulliken charges with hydrogens summed into heavy atoms:
              1
     1  C    0.048893
     5  C    0.361371
     7  C    0.106964
    10  C    0.025819
    14  Br  -0.882105
    15  C    0.217267
    18  C   -0.120814
    22  O   -0.757396
 Sum of Mulliken charges with hydrogens summed into heavy atoms =  -1.00000
 Electronic spatial extent (au):  <R**2>=           2670.8173
 Charge=             -1.0000 electrons
 Dipole moment (field-independent basis, Debye):
    X=              3.2662    Y=              1.5060    Z=              3.0198  Tot=              4.6963
 Quadrupole moment (field-independent basis, Debye-Ang):
   XX=           -118.1107   YY=            -69.5488   ZZ=            -68.4149
   XY=             -6.7825   XZ=             -1.7055   YZ=             -2.1374
 Traceless Quadrupole moment (field-independent basis, Debye-Ang):
   XX=            -32.7525   YY=             15.8094   ZZ=             16.9432
   XY=             -6.7825   XZ=             -1.7055   YZ=             -2.1374
 Octapole moment (field-independent basis, Debye-Ang**2):
  XXX=            -70.5496  YYY=             -8.0435  ZZZ=             -1.7465  XYY=            -21.9115
  XXY=             14.2589  XXZ=             14.4619  XZZ=            -21.3932  YZZ=             -3.7841
  YYZ=              0.6193  XYZ=             -3.2345
 Hexadecapole moment (field-independent basis, Debye-Ang**3):
 XXXX=          -2771.1484 YYYY=           -588.3852 ZZZZ=           -462.6843 XXXY=             40.5853
 XXXZ=             55.1643 YYYX=             53.1453 YYYZ=             -0.3601 ZZZX=             34.2134
 ZZZY=             -0.4510 XXYY=           -510.4313 XXZZ=           -472.8534 YYZZ=           -176.2894
 XXYZ=            -20.6579 YYXZ=             12.4776 ZZXY=             15.8858
 N-N= 5.633169019754D+02 E-N=-8.004963680531D+03  KE= 2.876810268291D+03
 Calling FoFJK, ICntrl=      2127 FMM=F ISym2X=0 I1Cent= 0 IOpClX= 0 NMat=1 NMatS=1 NMatT=0.
 ***** Axes restored to original set *****
 -------------------------------------------------------------------
 Center     Atomic                   Forces (Hartrees/Bohr)
 Number     Number              X              Y              Z
 -------------------------------------------------------------------
      1        6          -0.005584209   -0.029995825   -0.001300629
      2        1           0.013501631    0.000080679   -0.009190605
      3        1          -0.016904534   -0.004368765    0.003443699
      4        1           0.013175596   -0.003768175    0.018931642
      5        6           0.038354815    0.076869874    0.019393841
      6        1           0.003385779   -0.017194202    0.052500126
      7        6          -0.055266911   -0.037443046   -0.030858894
      8        1           0.075391416    0.033395879   -0.008098896
      9        1           0.005049705   -0.002283057    0.004809974
     10        6          -0.014809670    0.013126898   -0.015088758
     11        1          -0.031997224   -0.005233360    0.002199934
     12        1           0.010646824    0.001115009   -0.007778724
     13        1          -0.003342567   -0.001438925   -0.002010865
     14       35          -0.002162267   -0.006054601   -0.004395473
     15        6           0.001771360    0.013309470    0.007814938
     16        1           0.004558802   -0.001285375   -0.006071208
     17        1          -0.001890290    0.020110291    0.004777680
     18        6          -0.016167318    0.018388007    0.003965268
     19        1          -0.002769391   -0.002970563   -0.000253698
     20        1           0.002991074    0.004622515    0.000161338
     21        1          -0.000669661   -0.001095689   -0.000626531
     22        8          -0.017262959   -0.067887039   -0.032324159
 -------------------------------------------------------------------
 Cartesian Forces:  Max     0.076869874 RMS     0.022858157

 GradGradGradGradGradGradGradGradGradGradGradGradGradGradGradGradGradGrad
 Berny optimization.
 Internal  Forces:  Max     0.056386847 RMS     0.010220321
 Search for a saddle point.
 Step number   1 out of a maximum of  132
 All quantities printed in internal units (Hartrees-Bohrs-Radians)
 Second derivative matrix not updated -- first step.
 LST/QST climbing along tangent vector
     Eigenvalues ---    0.00230   0.00572   0.00594   0.00803   0.01353
     Eigenvalues ---    0.01999   0.02161   0.02380   0.02497   0.02972
     Eigenvalues ---    0.03277   0.03394   0.03542   0.03631   0.03894
     Eigenvalues ---    0.04094   0.04357   0.04574   0.04958   0.05120
     Eigenvalues ---    0.05425   0.05775   0.05895   0.06090   0.07221
     Eigenvalues ---    0.08133   0.08333   0.09088   0.10490   0.10782
     Eigenvalues ---    0.10966   0.11078   0.12092   0.12121   0.14105
     Eigenvalues ---    0.15172   0.16000   0.16000   0.16000   0.16405
     Eigenvalues ---    0.16952   0.19787   0.26282   0.26595   0.27024
     Eigenvalues ---    0.28223   0.33810   0.33840   0.34631   0.35109
     Eigenvalues ---    0.35242   0.35331   0.35422   0.35445   0.35487
     Eigenvalues ---    0.35523   0.35533   0.38446   0.42853   0.49705
     Eigenvalues --- 1000.000001000.000001000.000001000.000001000.00000
     Eigenvalues --- 1000.000001000.000001000.000001000.000001000.00000
     Eigenvalues --- 1000.000001000.000001000.000001000.000001000.00000
     Eigenvalues --- 1000.000001000.000001000.000001000.000001000.00000
     Eigenvalues --- 1000.000001000.000001000.000001000.000001000.00000
     Eigenvalues --- 1000.000001000.000001000.000001000.000001000.00000
     Eigenvalues --- 1000.000001000.000001000.000001000.000001000.00000
     Eigenvalues --- 1000.000001000.000001000.000001000.000001000.00000
     Eigenvalues --- 1000.000001000.000001000.000001000.000001000.00000
     Eigenvalues --- 1000.000001000.000001000.000001000.000001000.00000
     Eigenvalues --- 1000.000001000.000001000.000001000.000001000.00000
     Eigenvalues --- 1000.000001000.000001000.000001000.000001000.00000
     Eigenvalues --- 1000.000001000.000001000.000001000.000001000.00000
     Eigenvalues --- 1000.000001000.000001000.000001000.000001000.00000
     Eigenvalues --- 1000.000001000.000001000.000001000.000001000.00000
     Eigenvalues --- 1000.000001000.000001000.000001000.000001000.00000
     Eigenvalues --- 1000.000001000.000001000.000001000.000001000.00000
     Eigenvalues --- 1000.000001000.000001000.000001000.000001000.00000
     Eigenvalues --- 1000.000001000.000001000.000001000.000001000.00000
     Eigenvalues --- 1000.00000
 Eigenvectors required to have negative eigenvalues:
                          D49       D50       D51       D46       D47
   1                    0.33335   0.33334   0.33334   0.33332   0.33332
                          D48       D52       D53       D54       R16
   1                    0.33332   0.33326   0.33325   0.33325  -0.00814
 QST in optimization variable space.
 Eigenvectors 1 and  10 swapped, overlap=  1.0000
                        Tangent   TS vect  // Eig F  Eigenval
   1         R1        -0.00006  -0.00006  -0.01339   0.02972
   2         R2        -0.00007  -0.00007   0.00044   0.00572
   3         R3        -0.00439  -0.00439  -0.00139   0.00594
   4         R4         0.00216   0.00216  -0.00081   0.00803
   5         R5         0.00888   0.00888  -0.00046   0.01353
   6         R6         0.00240   0.00240  -0.00378   0.01999
   7         R7         0.24376   0.24376   0.00347   0.02161
   8         R8        -0.06100  -0.06100  -0.00088   0.02380
   9         R9         0.00182   0.00182   0.00072   0.02497
  10         R10       -0.00016  -0.00016   0.00000   0.00230
  11         R11        0.00652   0.00652   0.00802   0.03277
  12         R12        0.00182   0.00182  -0.01338   0.03394
  13         R13       -0.00011  -0.00011  -0.00408   0.03542
  14         R14        0.00066   0.00066  -0.00533   0.03631
  15         R15       -0.02713  -0.02713   0.00072   0.03894
  16         R16        0.56094   0.56094  -0.00342   0.04094
  17         R17        0.00332   0.00332   0.00388   0.04357
  18         R18        0.00789   0.00789   0.00909   0.04574
  19         R19        0.00446   0.00446  -0.00370   0.04958
  20         R20       -0.01853  -0.01853  -0.00318   0.05120
  21         R21        0.00027   0.00027  -0.00055   0.05425
  22         R22        0.00072   0.00072  -0.00154   0.05775
  23         R23        0.00037   0.00037  -0.00182   0.05895
  24         R24       -0.11316  -0.11316   0.01340   0.06090
  25         R25       -0.27075  -0.27075  -0.01155   0.07221
  26         R26       -0.09565  -0.09565   0.00858   0.08133
  27         A1         0.00184   0.00184  -0.01899   0.08333
  28         A2        -0.00020  -0.00020   0.00511   0.09088
  29         A3        -0.00262  -0.00262   0.01244   0.10490
  30         A4        -0.00014  -0.00014  -0.02003   0.10782
  31         A5         0.00016   0.00016  -0.00428   0.10966
  32         A6         0.00106   0.00106  -0.00253   0.11078
  33         A7         0.00713   0.00713  -0.00683   0.12092
  34         A8         0.00190   0.00190   0.00238   0.12121
  35         A9        -0.05833  -0.05833  -0.01133   0.14105
  36         A10       -0.00365  -0.00365   0.01401   0.15172
  37         A11       -0.02021  -0.02021   0.00537   0.16000
  38         A12       -0.04324  -0.04324   0.00121   0.16000
  39         A13       -0.12361  -0.12361  -0.00149   0.16000
  40         A14       -0.00645  -0.00645   0.01241   0.16405
  41         A15        0.00209   0.00209  -0.00385   0.16952
  42         A16        0.00500   0.00500  -0.01451   0.19787
  43         A17        0.00561   0.00561  -0.00168   0.26282
  44         A18       -0.00411  -0.00411  -0.01044   0.26595
  45         A19       -0.00120  -0.00120   0.00492   0.27024
  46         A20       -0.00461  -0.00461   0.00185   0.28223
  47         A21        0.00454   0.00454   0.00142   0.33810
  48         A22       -0.00101  -0.00101   0.00163   0.33840
  49         A23       -0.00706  -0.00706  -0.00070   0.34631
  50         A24        0.01065   0.01065   0.00142   0.35109
  51         A25       -0.00226  -0.00226  -0.00032   0.35242
  52         A26       -0.05250  -0.05250   0.00057   0.35331
  53         A27        0.03143   0.03143  -0.00079   0.35422
  54         A28       -0.05680  -0.05680   0.00173   0.35445
  55         A29       -0.03379  -0.03379  -0.00045   0.35487
  56         A30       -0.01120  -0.01120  -0.00038   0.35523
  57         A31       -0.00504  -0.00504  -0.00082   0.35533
  58         A32        0.00759   0.00759   0.01220   0.38446
  59         A33        0.00064   0.00064   0.02803   0.42853
  60         A34        0.00358   0.00358   0.01849   0.49705
  61         A35        0.00477   0.00477   0.000001000.00000
  62         A36       -0.14155  -0.14155   0.000001000.00000
  63         A37       -0.00127  -0.00127   0.000001000.00000
  64         A38        0.00271   0.00271   0.000001000.00000
  65         A39       -0.00092  -0.00092   0.000001000.00000
  66         A40       -0.00017  -0.00017   0.000001000.00000
  67         A41       -0.00088  -0.00088   0.000001000.00000
  68         A42        0.00041   0.00041   0.000001000.00000
  69         A43       -0.01901  -0.01901   0.000001000.00000
  70         A44        0.10480   0.10480   0.000001000.00000
  71         A45       -0.03069  -0.03069   0.000001000.00000
  72         A46        0.09384   0.09384   0.000001000.00000
  73         A47        0.00335   0.00335   0.000001000.00000
  74         A48        0.11489   0.11489   0.000001000.00000
  75         A49        0.04241   0.04241   0.000001000.00000
  76         A50       -0.02903  -0.02903   0.000001000.00000
  77         A51       -0.07863  -0.07863   0.000001000.00000
  78         D1        -0.12397  -0.12397   0.000001000.00000
  79         D2        -0.01340  -0.01340   0.000001000.00000
  80         D3        -0.09096  -0.09096   0.000001000.00000
  81         D4        -0.12344  -0.12344   0.000001000.00000
  82         D5        -0.01286  -0.01286   0.000001000.00000
  83         D6        -0.09043  -0.09043   0.000001000.00000
  84         D7        -0.12274  -0.12274   0.000001000.00000
  85         D8        -0.01216  -0.01216   0.000001000.00000
  86         D9        -0.08972  -0.08972   0.000001000.00000
  87         D10       -0.06240  -0.06240   0.000001000.00000
  88         D11       -0.22543  -0.22543   0.000001000.00000
  89         D12       -0.12630  -0.12630   0.000001000.00000
  90         D13        0.00330   0.00330   0.000001000.00000
  91         D14       -0.00143  -0.00143   0.000001000.00000
  92         D15       -0.00591  -0.00591   0.000001000.00000
  93         D16        0.17991   0.17991   0.000001000.00000
  94         D17        0.17518   0.17518   0.000001000.00000
  95         D18        0.17070   0.17070   0.000001000.00000
  96         D19        0.09114   0.09114   0.000001000.00000
  97         D20        0.08641   0.08641   0.000001000.00000
  98         D21        0.08193   0.08193   0.000001000.00000
  99         D22        0.01968   0.01968   0.000001000.00000
 100         D23        0.02533   0.02533   0.000001000.00000
 101         D24        0.03843   0.03843   0.000001000.00000
 102         D25        0.11190   0.11190   0.000001000.00000
 103         D26       -0.05421  -0.05421   0.000001000.00000
 104         D27        0.02141   0.02141   0.000001000.00000
 105         D28        0.01249   0.01249   0.000001000.00000
 106         D29        0.01191   0.01191   0.000001000.00000
 107         D30        0.01111   0.01111   0.000001000.00000
 108         D31        0.00219   0.00219   0.000001000.00000
 109         D32        0.00160   0.00160   0.000001000.00000
 110         D33        0.01514   0.01514   0.000001000.00000
 111         D34        0.00622   0.00622   0.000001000.00000
 112         D35        0.00563   0.00563   0.000001000.00000
 113         D36        0.03377   0.03377   0.000001000.00000
 114         D37        0.03475   0.03475   0.000001000.00000
 115         D38        0.03589   0.03589   0.000001000.00000
 116         D39       -0.08448  -0.08448   0.000001000.00000
 117         D40        0.01981   0.01981   0.000001000.00000
 118         D41       -0.07553  -0.07553   0.000001000.00000
 119         D42        0.12684   0.12684   0.000001000.00000
 120         D43       -0.02484  -0.02484   0.000001000.00000
 121         D44       -0.03798  -0.03798   0.000001000.00000
 122         D45       -0.02912  -0.02912   0.000001000.00000
 123         D46       -0.00623  -0.00623   0.000001000.00000
 124         D47       -0.00554  -0.00554   0.000001000.00000
 125         D48       -0.00391  -0.00391   0.000001000.00000
 126         D49        0.01073   0.01073   0.000001000.00000
 127         D50        0.01142   0.01142   0.000001000.00000
 128         D51        0.01305   0.01305   0.000001000.00000
 129         D52        0.00278   0.00278   0.000001000.00000
 130         D53        0.00348   0.00348   0.000001000.00000
 131         D54        0.00511   0.00511   0.000001000.00000
 132         D55        0.09165   0.09165   0.000001000.00000
 133         D56        0.08476   0.08476   0.000001000.00000
 134         D57        0.09006   0.09006   0.000001000.00000
 135         D58        0.06765   0.06765   0.000001000.00000
 136         D59        0.06560   0.06560   0.000001000.00000
 137         D60        0.06493   0.06493   0.000001000.00000
 138         D61        0.00989   0.00989   0.000001000.00000
 139         D62        0.01042   0.01042   0.000001000.00000
 140         D63        0.01112   0.01112   0.000001000.00000
 141         D64       -0.11878  -0.11878   0.000001000.00000
 142         D65       -0.04162  -0.04162   0.000001000.00000
 143         D66       -0.03218  -0.03218   0.000001000.00000
 144         D67       -0.03691  -0.03691   0.000001000.00000
 145         D68       -0.04139  -0.04139   0.000001000.00000
 146         D69       -0.05379  -0.05379   0.000001000.00000
 147         D70       -0.05210  -0.05210   0.000001000.00000
 148         D71       -0.05387  -0.05387   0.000001000.00000
 149         D72        0.10532   0.10532   0.000001000.00000
 150         D73        0.08051   0.08051   0.000001000.00000
 151         D74        0.06332   0.06332   0.000001000.00000
 152         D75        0.09752   0.09752   0.000001000.00000
 153         D76        0.05643   0.05643   0.000001000.00000
 154         D77        0.09063   0.09063   0.000001000.00000
 155         D78        0.06172   0.06172   0.000001000.00000
 156         D79        0.09592   0.09592   0.000001000.00000
 RFO step:  Lambda0=3.485891928D-02 Lambda=-2.67120881D-02.
 Linear search not attempted -- option 19 set.
 Maximum step size (   0.300) exceeded in Quadratic search.
    -- Step size scaled by   0.113
 Iteration  1 RMS(Cart)=  0.02697892 RMS(Int)=  0.00066446
 Iteration  2 RMS(Cart)=  0.00053846 RMS(Int)=  0.00026713
 Iteration  3 RMS(Cart)=  0.00000018 RMS(Int)=  0.00026713
 Variable       Old X    -DE/DX   Delta X   Delta X   Delta X     New X
                                 (Linear)    (Quad)   (Total)
    R1        2.04958   0.00346   0.00000   0.00049   0.00049   2.05007
    R2        2.04892  -0.00091   0.00000  -0.00016  -0.00016   2.04876
    R3        2.00074   0.00921   0.00000   0.00003   0.00015   2.00090
    R4        2.88561   0.00119   0.00000   0.00053   0.00051   2.88613
    R5        2.10432  -0.01483   0.00000  -0.00140  -0.00183   2.10249
    R6        3.02125  -0.02240   0.00000  -0.00698  -0.00743   3.01382
    R7        4.49018  -0.01943   0.00000   0.05380   0.05381   4.54399
    R8        4.91054  -0.00203   0.00000  -0.01571  -0.01513   4.89542
    R9        1.88293   0.05639   0.00000   0.00790   0.00817   1.89110
   R10        2.05140   0.00114   0.00000   0.00012   0.00012   2.05152
   R11        2.93208   0.00600   0.00000   0.00275   0.00258   2.93466
   R12        1.97561   0.01578   0.00000   0.00353   0.00381   1.97941
   R13        2.05284  -0.00065   0.00000  -0.00013  -0.00013   2.05271
   R14        2.04818  -0.00165   0.00000  -0.00005  -0.00005   2.04813
   R15        5.71183  -0.02058   0.00000  -0.02469  -0.02428   5.68755
   R16        9.30228   0.00641   0.00000   0.16854   0.16810   9.47038
   R17        2.07600   0.00335   0.00000   0.00150   0.00150   2.07750
   R18        2.06139   0.00424   0.00000   0.00299   0.00309   2.06448
   R19        2.91652   0.00362   0.00000   0.00198   0.00198   2.91850
   R20        2.57379   0.03760   0.00000  -0.00081  -0.00039   2.57340
   R21        2.04995  -0.00159   0.00000  -0.00016  -0.00016   2.04979
   R22        2.05497   0.00283   0.00000   0.00064   0.00064   2.05561
   R23        2.04834  -0.00077   0.00000   0.00000   0.00000   2.04834
   R24        4.29691  -0.00732   0.00000  -0.04056  -0.04049   4.25642
   R25        5.72060   0.01012   0.00000  -0.07353  -0.07394   5.64666
   R26        4.15085  -0.02101   0.00000  -0.03634  -0.03606   4.11478
    A1        1.91039  -0.00206   0.00000  -0.00034  -0.00036   1.91004
    A2        2.00583  -0.00532   0.00000  -0.00234  -0.00241   2.00342
    A3        1.81309   0.01493   0.00000   0.00644   0.00658   1.81967
    A4        1.79415   0.00818   0.00000   0.00466   0.00481   1.79896
    A5        2.02874  -0.01570   0.00000  -0.00656  -0.00664   2.02210
    A6        1.91941  -0.00163   0.00000  -0.00255  -0.00269   1.91672
    A7        1.78497   0.01293   0.00000   0.01116   0.01169   1.79666
    A8        2.01630  -0.00973   0.00000  -0.00261  -0.00274   2.01356
    A9        1.51620   0.00227   0.00000  -0.01460  -0.01464   1.50156
   A10        2.48110  -0.00365   0.00000  -0.00717  -0.00815   2.47294
   A11        1.79812  -0.00487   0.00000  -0.00939  -0.00959   1.78853
   A12        1.42621   0.01013   0.00000  -0.00767  -0.00756   1.41865
   A13        1.77464   0.01133   0.00000  -0.03285  -0.03302   1.74162
   A14        1.90282  -0.00981   0.00000  -0.00814  -0.00818   1.89464
   A15        1.76311   0.01030   0.00000   0.00469   0.00484   1.76795
   A16        2.25398  -0.01525   0.00000  -0.00608  -0.00661   2.24737
   A17        1.98229  -0.00496   0.00000  -0.00051  -0.00064   1.98164
   A18        1.68450   0.01796   0.00000   0.00911   0.00954   1.69403
   A19        1.88439   0.00028   0.00000   0.00060   0.00071   1.88510
   A20        1.87016   0.01786   0.00000   0.00494   0.00495   1.87512
   A21        1.95926  -0.01723   0.00000  -0.00515  -0.00520   1.95406
   A22        1.91448  -0.00116   0.00000  -0.00061  -0.00058   1.91390
   A23        1.87092  -0.00044   0.00000  -0.00081  -0.00064   1.87027
   A24        1.96335  -0.00535   0.00000   0.00134   0.00117   1.96451
   A25        1.88648   0.00575   0.00000   0.00020   0.00019   1.88667
   A26        2.17338  -0.01411   0.00000  -0.01766  -0.01761   2.15577
   A27        1.35887  -0.00402   0.00000   0.00581   0.00494   1.36382
   A28        0.56085  -0.00455   0.00000  -0.02213  -0.02244   0.53840
   A29        1.09714   0.00814   0.00000  -0.00906  -0.00893   1.08821
   A30        1.80490   0.00416   0.00000  -0.00276  -0.00272   1.80218
   A31        1.88456  -0.00418   0.00000  -0.00332  -0.00332   1.88125
   A32        2.06236  -0.00972   0.00000  -0.00160  -0.00174   2.06062
   A33        2.00980  -0.01694   0.00000  -0.00639  -0.00666   2.00314
   A34        1.89952   0.00423   0.00000   0.00454   0.00475   1.90427
   A35        1.81153   0.02000   0.00000   0.00869   0.00879   1.82032
   A36        1.76228  -0.00520   0.00000  -0.04482  -0.04491   1.71737
   A37        1.90996  -0.00680   0.00000  -0.00267  -0.00267   1.90730
   A38        1.95198   0.00855   0.00000   0.00366   0.00366   1.95564
   A39        1.90089  -0.00209   0.00000  -0.00093  -0.00093   1.89996
   A40        1.90612  -0.00052   0.00000  -0.00015  -0.00014   1.90597
   A41        1.88832   0.00242   0.00000  -0.00008  -0.00008   1.88823
   A42        1.90550  -0.00171   0.00000   0.00006   0.00006   1.90556
   A43        1.80199   0.00083   0.00000  -0.00439  -0.00408   1.79791
   A44        1.84211  -0.00547   0.00000   0.02916   0.02921   1.87132
   A45        2.23346  -0.00642   0.00000  -0.01447  -0.01496   2.21850
   A46        0.99844  -0.00702   0.00000   0.02552   0.02584   1.02428
   A47        1.66471   0.00376   0.00000   0.00049   0.00095   1.66566
   A48        1.86985  -0.00966   0.00000   0.03282   0.03291   1.90277
   A49        1.31754  -0.00801   0.00000   0.00950   0.00914   1.32668
   A50        2.04799   0.00737   0.00000  -0.00448  -0.00424   2.04375
   A51        2.53218   0.01272   0.00000  -0.02007  -0.02017   2.51201
    D1       -2.06028  -0.00239   0.00000  -0.04029  -0.04036  -2.10064
    D2        1.04753  -0.01167   0.00000  -0.01209  -0.01191   1.03562
    D3        2.43123   0.00220   0.00000  -0.02752  -0.02721   2.40402
    D4        0.03916  -0.00331   0.00000  -0.03988  -0.03994  -0.00078
    D5       -3.13622  -0.01259   0.00000  -0.01168  -0.01149   3.13548
    D6       -1.75252   0.00128   0.00000  -0.02711  -0.02679  -1.77931
    D7        2.06767  -0.00413   0.00000  -0.03999  -0.03998   2.02769
    D8       -1.10772  -0.01341   0.00000  -0.01179  -0.01152  -1.11924
    D9        0.27598   0.00047   0.00000  -0.02722  -0.02682   0.24916
   D10        2.22538  -0.01457   0.00000  -0.03033  -0.02989   2.19549
   D11       -0.86650  -0.00091   0.00000  -0.07223  -0.07183  -0.93833
   D12       -2.49401  -0.01026   0.00000  -0.04510  -0.04475  -2.53877
   D13        1.04638   0.00725   0.00000   0.00519   0.00507   1.05145
   D14       -1.04590   0.01180   0.00000   0.00682   0.00681  -1.03908
   D15        3.06763   0.01192   0.00000   0.00547   0.00558   3.07321
   D16       -2.14905  -0.00715   0.00000   0.05077   0.05052  -2.09853
   D17        2.04186  -0.00260   0.00000   0.05240   0.05226   2.09412
   D18       -0.12780  -0.00247   0.00000   0.05105   0.05103  -0.07677
   D19       -0.39341  -0.00243   0.00000   0.02495   0.02480  -0.36861
   D20       -2.48568   0.00212   0.00000   0.02658   0.02654  -2.45915
   D21        1.62784   0.00224   0.00000   0.02523   0.02531   1.65315
   D22        1.84815   0.00743   0.00000   0.00999   0.01007   1.85822
   D23        0.07003  -0.00639   0.00000   0.00176   0.00114   0.07117
   D24       -2.40411  -0.00427   0.00000   0.01112   0.01125  -2.39286
   D25        0.65830   0.00977   0.00000   0.04331   0.04345   0.70175
   D26        1.66499   0.02985   0.00000  -0.00185  -0.00283   1.66217
   D27        1.08517   0.00656   0.00000   0.00956   0.00928   1.09445
   D28        3.13466   0.00747   0.00000   0.00876   0.00865  -3.13988
   D29       -1.05094   0.00269   0.00000   0.00524   0.00513  -1.04581
   D30       -3.08509   0.00130   0.00000   0.00341   0.00314  -3.08195
   D31       -1.03561   0.00220   0.00000   0.00261   0.00251  -1.03309
   D32        1.06198  -0.00257   0.00000  -0.00092  -0.00101   1.06097
   D33       -1.03603   0.00359   0.00000   0.00690   0.00674  -1.02929
   D34        1.01346   0.00449   0.00000   0.00610   0.00611   1.01957
   D35        3.11105  -0.00029   0.00000   0.00257   0.00258   3.11363
   D36       -0.59499  -0.00410   0.00000   0.00917   0.00909  -0.58590
   D37       -2.70150   0.00676   0.00000   0.01300   0.01288  -2.68863
   D38        1.51037   0.00309   0.00000   0.01250   0.01238   1.52275
   D39       -0.04170  -0.00512   0.00000  -0.03137  -0.03142  -0.07312
   D40       -0.57121  -0.00588   0.00000   0.00325   0.00386  -0.56734
   D41       -0.12639   0.01890   0.00000  -0.01896  -0.01972  -0.14611
   D42        1.82520  -0.00025   0.00000   0.03768   0.03814   1.86334
   D43        1.06140  -0.00523   0.00000  -0.00777  -0.00747   1.05393
   D44        3.11304  -0.01631   0.00000  -0.01690  -0.01664   3.09640
   D45       -1.14546   0.00152   0.00000  -0.00670  -0.00636  -1.15182
   D46       -1.13332  -0.00260   0.00000  -0.00339  -0.00335  -1.13667
   D47        0.98120  -0.00229   0.00000  -0.00299  -0.00296   0.97824
   D48        3.08882  -0.00038   0.00000  -0.00121  -0.00118   3.08764
   D49       -3.13955   0.00478   0.00000   0.00596   0.00601  -3.13354
   D50       -1.02502   0.00508   0.00000   0.00635   0.00640  -1.01862
   D51        1.08260   0.00699   0.00000   0.00813   0.00818   1.09078
   D52        1.06931  -0.00472   0.00000  -0.00202  -0.00210   1.06721
   D53       -3.09935  -0.00441   0.00000  -0.00163  -0.00171  -3.10106
   D54       -0.99173  -0.00250   0.00000   0.00016   0.00007  -0.99166
   D55       -0.71696  -0.00353   0.00000   0.02524   0.02534  -0.69162
   D56        1.33255  -0.00120   0.00000   0.02411   0.02431   1.35686
   D57       -2.80206  -0.00759   0.00000   0.02386   0.02397  -2.77809
   D58       -2.33761  -0.01376   0.00000   0.01590   0.01610  -2.32151
   D59        1.87157  -0.01387   0.00000   0.01447   0.01463   1.88620
   D60       -0.29958   0.00073   0.00000   0.02082   0.02105  -0.27853
   D61       -1.05203   0.00022   0.00000   0.00480   0.00454  -1.04749
   D62        1.04741  -0.00071   0.00000   0.00521   0.00496   1.05237
   D63        3.07591  -0.00152   0.00000   0.00510   0.00493   3.08084
   D64        1.23231   0.01427   0.00000  -0.03219  -0.03248   1.19982
   D65       -1.29938   0.00162   0.00000  -0.01263  -0.01273  -1.31211
   D66       -2.84804  -0.00429   0.00000  -0.01468  -0.01501  -2.86306
   D67        1.34286   0.00026   0.00000  -0.01305  -0.01327   1.32959
   D68       -0.82680   0.00039   0.00000  -0.01440  -0.01450  -0.84130
   D69        0.44383   0.00242   0.00000  -0.01444  -0.01477   0.42906
   D70        2.39477   0.00632   0.00000  -0.01394  -0.01418   2.38059
   D71       -1.91851   0.01447   0.00000  -0.00866  -0.00858  -1.92709
   D72       -1.32817  -0.01213   0.00000   0.02405   0.02450  -1.30367
   D73        0.71846  -0.00498   0.00000   0.02105   0.02143   0.73989
   D74        0.27365   0.00175   0.00000   0.01983   0.01978   0.29343
   D75       -1.54767  -0.00584   0.00000   0.02643   0.02659  -1.52108
   D76        2.32316   0.00408   0.00000   0.01869   0.01876   2.34192
   D77        0.50184  -0.00351   0.00000   0.02529   0.02557   0.52741
   D78       -1.81145  -0.00231   0.00000   0.01844   0.01841  -1.79304
   D79        2.65041  -0.00990   0.00000   0.02505   0.02522   2.67563
         Item               Value     Threshold  Converged?
 Maximum Force            0.056387     0.000450     NO 
 RMS     Force            0.010220     0.000300     NO 
 Maximum Displacement     0.130241     0.001800     NO 
 RMS     Displacement     0.027031     0.001200     NO 
 Predicted change in Energy=-7.956505D-04
 GradGradGradGradGradGradGradGradGradGradGradGradGradGradGradGradGradGrad

                          Input orientation:                          
 ---------------------------------------------------------------------
 Center     Atomic      Atomic             Coordinates (Angstroms)
 Number     Number       Type             X           Y           Z
 ---------------------------------------------------------------------
      1          6           0        1.824876   -0.948114   -1.789888
      2          1           0        1.985595   -1.999369   -2.004213
      3          1           0        1.549148   -0.431900   -2.702518
      4          1           0        2.686930   -0.423608   -1.469146
      5          6           0        0.775136   -0.946554   -0.680562
      6          1           0       -0.063462   -0.371307   -1.131888
      7          6           0        1.189395   -1.716519    0.653257
      8          1           0        2.008690   -1.282632    1.030027
      9          1           0        1.364709   -2.718721    0.274539
     10          6           0        0.406420   -1.838131    1.988860
     11          1           0       -0.488315   -2.342504    1.783357
     12          1           0        0.945872   -2.428936    2.723619
     13          1           0        0.241202   -0.851446    2.405788
     14         35           0       -1.988531   -2.075048   -0.812071
     15          6           0        1.358503    1.903093    0.125832
     16          1           0        0.855265    2.012124   -0.845493
     17          1           0        0.532407    1.928687    0.840264
     18          6           0        2.370793    3.061103    0.265344
     19          1           0        3.144083    2.953497   -0.487665
     20          1           0        1.896436    4.033728    0.154645
     21          1           0        2.838456    3.001993    1.241412
     22          8           0        2.099423    0.780977    0.341139
 ---------------------------------------------------------------------
                    Distance matrix (angstroms):
                    1          2          3          4          5
     1  C    0.000000
     2  H    1.084852   0.000000
     3  H    1.084157   1.770614   0.000000
     4  H    1.058829   1.805877   1.678042   0.000000
     5  C    1.527272   2.079827   2.225370   2.133142   0.000000
     6  H    2.081223   2.758653   2.251902   2.771486   1.112587
     7  C    2.638795   2.788563   3.611218   2.901521   1.594845
     8  H    2.845630   3.117829   3.855752   2.728333   2.135584
     9  H    2.758380   2.468942   3.758515   3.171159   2.097710
    10  C    4.133169   4.297025   5.029150   4.377146   2.838429
    11  H    4.479202   4.536922   5.284387   4.933875   3.100949
    12  H    4.830862   4.859830   5.813352   4.963054   3.716862
    13  H    4.485651   4.879420   5.289758   4.602145   3.133638
    14  Br   4.094897   4.149772   4.334617   5.001894   2.988085
    15  C    3.466535   4.489938   3.672616   3.118046   3.018456
    16  H    3.255002   4.325778   3.146947   3.110744   2.964355
    17  H    4.106598   5.062847   4.376921   3.938099   3.261723
    18  C    4.538261   5.559464   4.656648   3.905330   4.416127
    19  H    4.319567   5.307815   4.348599   3.546425   4.567223
    20  H    5.348371   6.408344   5.312798   4.809306   5.172823
    21  H    5.081286   6.022879   5.385956   4.370906   4.852041
    22  O    2.757971   3.639225   3.322307   2.252403   2.404574
                    6          7          8          9         10
     6  H    0.000000
     7  C    2.562418   0.000000
     8  H    3.130208   1.000728   0.000000
     9  H    3.086756   1.085620   1.745802   0.000000
    10  C    3.480148   1.552958   1.948130   2.152361   0.000000
    11  H    3.544682   2.117474   2.815292   2.419043   1.047461
    12  H    4.485257   2.203008   2.304745   2.501479   1.086246
    13  H    3.583086   2.172277   2.280932   3.048148   1.083823
    14  Br   2.590543   3.517804   4.472027   3.583191   3.692850
    15  C    2.962556   3.661743   3.374782   4.624210   4.286501
    16  H    2.570375   4.032452   3.962749   4.888241   4.802029
    17  H    3.087784   3.708656   3.539490   4.755120   3.940058
    18  C    4.433880   4.936785   4.425369   5.866741   5.552636
    19  H    4.664514   5.189563   4.640830   5.993429   6.048775
    20  H    4.990060   5.814969   5.389117   6.774413   6.329552
    21  H    5.043098   5.032860   4.369348   5.986095   5.468114
    22  O    2.859307   2.676388   2.177449   3.576608   3.527176
                   11         12         13         14         15
    11  H    0.000000
    12  H    1.717107   0.000000
    13  H    1.772814   1.756715   0.000000
    14  Br   3.009723   4.608369   4.101650   0.000000
    15  C    4.917644   5.068061   3.746204   5.282794   0.000000
    16  H    5.261069   5.698227   4.375835   4.979284   1.099367
    17  H    4.491589   4.765171   3.203874   5.011510   1.092475
    18  C    6.299034   6.181751   4.942135   6.822359   1.544403
    19  H    6.811717   6.641918   5.592529   7.192722   2.160561
    20  H    6.999720   7.019205   5.627822   7.303743   2.197682
    21  H    6.318604   5.939175   4.790667   7.300202   2.154614
    22  O    4.304941   4.160581   3.221889   5.118413   1.361787
                   16         17         18         19         20
    16  H    0.000000
    17  H    1.718422   0.000000
    18  C    2.152008   2.234404   0.000000
    19  H    2.500583   3.103946   1.084702   0.000000
    20  H    2.484189   2.600355   1.087782   1.770899   0.000000
    21  H    3.044349   2.575028   1.083934   1.756550   1.770013
    22  O    2.114651   2.005468   2.297468   2.549132   3.264410
                   21         22
    21  H    0.000000
    22  O    2.507902   0.000000
 Stoichiometry    C6H14BrO(1-)
 Framework group  C1[X(C6H14BrO)]
 Deg. of freedom    60
 Full point group                 C1      NOp   1
 Largest Abelian subgroup         C1      NOp   1
 Largest concise Abelian subgroup C1      NOp   1
                         Standard orientation:                         
 ---------------------------------------------------------------------
 Center     Atomic      Atomic             Coordinates (Angstroms)
 Number     Number       Type             X           Y           Z
 ---------------------------------------------------------------------
      1          6           0        0.792034   -0.597951    2.078198
      2          1           0        0.135205   -0.197928    2.843352
      3          1           0        0.832671   -1.677774    2.166101
[...]
 613734,-0.00118896,-0.00456300,0.00004467,-0.00046717,0.00023206,-0.01
 535418,0.01736081,-0.02329694,0.00011194,0.00036120,0.00116265,-0.0007
 9829,-0.00099897,0.00077375,-0.07879351,0.10375160,-0.21721994,-0.0029
 7424,0.00284183,-0.00532902,0.08840180,-0.11961338,0.24205551,0.000004
 41,-0.00000158,-0.00019940,-0.00001859,-0.00009044,-0.00014229,0.00000
 255,-0.00006427,-0.00000966,-0.00015656,0.00003621,0.00034875,0.001219
 24,0.00145677,-0.00030019,0.00032842,-0.00032101,-0.00046321,-0.002558
 32,0.02524821,0.00924720,0.00010527,0.00126797,-0.00038886,-0.00241068
 ,0.00004810,0.00449222,-0.05997209,-0.00691407,-0.00799783,0.00257157,
 -0.03691549,-0.00698927,-0.00101914,0.01655077,0.00421701,0.06273632,0
 .00005460,0.00021160,-0.00014820,-0.00007425,-0.00005802,0.00004237,-0
 .00001063,-0.00000214,-0.00002693,-0.00009400,-0.00003922,0.00005323,-
 0.00017829,0.00069214,0.00067608,-0.00007831,0.00026908,-0.00036512,0.
 00137908,-0.00839021,-0.00302562,0.00008994,0.00011861,0.00022273,0.00
 054336,0.00117682,-0.00050027,-0.00022145,-0.33859634,-0.05953562,0.00
 015584,-0.00713630,-0.00113448,-0.00010590,-0.01546406,-0.00309058,0.0
 0021260,0.37085228,-0.00000954,0.00036399,0.00017452,-0.00011298,0.000
 18259,0.00025130,-0.00002855,0.00008181,0.00001872,0.00027677,-0.00014
 967,-0.00042907,-0.00183934,-0.00535603,-0.00088536,-0.00068776,0.0004
 5539,-0.00102241,0.00443670,-0.03536438,-0.01288210,-0.00059756,-0.000
 09499,0.00151930,0.00436193,-0.00023195,-0.00508063,-0.00724511,-0.051
 42860,-0.06697240,0.00053232,-0.00679929,-0.00267408,0.00071532,0.0316
 9845,0.00752797,0.00206634,0.06469847,0.07756541,-0.01767600,-0.017535
 07,-0.00865436,0.00047897,-0.00061003,-0.00058500,-0.00002779,-0.00011
 187,0.00018660,-0.00196152,-0.00097162,0.00352199,0.01598871,0.0321119
 2,0.01921456,-0.00659862,-0.00752816,-0.00380914,-0.01553149,-0.010126
 31,-0.00710679,0.00023202,0.00055502,-0.00343959,-0.00155912,-0.001949
 67,-0.00201881,-0.00116917,-0.00024555,0.00089365,0.00121689,0.0002977
 3,-0.00082862,0.00044992,0.00032140,-0.00034978,-0.00021210,-0.0001190
 3,0.00070551,0.03056045,-0.01055743,-0.01214184,-0.00612917,-0.0003673
 2,0.00135081,0.00063448,-0.00024938,-0.00022959,-0.00056286,-0.0015625
 3,0.00026814,0.00165355,0.03037766,0.00689227,0.01509440,-0.02181592,-
 0.01507037,-0.00893559,-0.00292823,-0.00602783,-0.00013152,0.00050366,
 0.00074889,-0.00068296,-0.00028296,0.00271782,0.00007587,-0.00057870,0
 .00050804,0.00019438,0.00071112,-0.00033787,-0.00065113,0.00015203,0.0
 0032078,-0.00049362,-0.00043276,-0.00002597,0.00118442,0.01517062,0.03
 103094,0.00397910,0.00425845,-0.00007103,-0.00072690,0.00105278,0.0004
 2459,0.00078369,-0.00073355,0.00176021,0.00144664,-0.00014589,-0.00045
 804,0.01835807,0.01505994,-0.00665573,-0.01033276,-0.00775184,-0.00431
 173,-0.01365794,-0.00998040,-0.00703883,-0.00049467,0.00054529,-0.0029
 5156,-0.00128816,-0.00157404,-0.00130244,0.00000340,-0.00037331,0.0000
 0917,-0.00106428,-0.00021218,-0.00016733,-0.00033625,0.00017510,-0.000
 30756,-0.00050743,-0.00010536,0.00019016,0.00861085,0.00689610,0.02324
 618,0.00068315,-0.00015654,0.00041570,-0.00037219,-0.00006326,-0.00030
 159,-0.00018271,-0.00026620,-0.00057200,-0.00012933,0.00132869,0.00015
 537,0.00699021,0.01345411,0.00856581,-0.00198249,-0.00439054,-0.001350
 07,-0.00008143,-0.00081006,0.00033670,0.00039511,-0.00176207,0.0003879
 5,-0.00050967,-0.00048259,0.00033062,-0.00047273,-0.00072573,0.0005454
 9,-0.00004582,-0.00024079,-0.00011268,-0.00006363,-0.00005390,0.000097
 12,0.00131224,-0.00018024,-0.00121799,-0.00282656,-0.00295002,-0.00179
 578,0.50234349,-0.00229015,0.00125027,0.00162395,0.00045450,0.00088069
 ,0.00096892,0.00055176,0.00032294,0.00074130,0.00343502,-0.00176237,-0
 .00466027,-0.00816365,-0.02273485,-0.00889258,-0.00176280,0.00182646,-
 0.00037462,0.00173982,-0.00170593,0.00016976,-0.00077312,-0.00273722,-
 0.00015868,-0.00002456,0.00039347,0.00000342,0.00111963,-0.00023216,-0
 .00168360,0.00014488,0.00052952,0.00021364,-0.00010085,0.00068949,-0.0
 0045432,-0.00279832,-0.00161030,0.00415463,0.00545799,0.00630969,0.003
 62204,-0.04198121,0.47493558,0.00130419,-0.00043677,-0.00272685,-0.000
 31815,0.00003949,-0.00047138,-0.00038510,-0.00053978,-0.00095477,-0.00
 026479,-0.00223124,0.00091724,0.00455846,0.00596183,0.00388227,-0.0012
 8434,-0.00249620,0.00038658,-0.00007181,-0.00099491,0.00055752,0.00026
 475,-0.00080535,-0.00045045,-0.00005654,-0.00022189,-0.00016613,0.0001
 2919,0.00087630,-0.00006992,0.00001705,-0.00008316,-0.00001851,0.00005
 751,-0.00003812,-0.00011132,-0.00059083,0.00084640,0.00036498,-0.00049
 410,-0.00052919,-0.00078575,0.00295445,0.01962572,0.58749706,-0.000032
 81,-0.00011339,0.00002497,0.00007579,-0.00010483,0.00009399,0.00014431
 ,0.00018369,0.00036560,-0.00010103,-0.00002280,-0.00052476,-0.00107424
 ,-0.00280460,-0.00173681,0.00006285,0.00130381,0.00001603,-0.00007866,
 -0.00019102,-0.00006611,0.00012837,-0.00048057,-0.00001606,0.00015435,
 0.00007057,0.00004927,0.00011188,0.00000907,-0.00002779,0.00005178,0.0
 0008395,0.00000064,-0.00000562,0.00002662,-0.00000525,-0.00037474,-0.0
 0004865,0.00026575,0.00082178,0.00078395,0.00066198,-0.12303722,0.0093
 9410,-0.08352387,0.14177731,0.00004517,-0.00010075,-0.00022716,-0.0000
 7396,-0.00000125,-0.00014110,-0.00009495,-0.00016451,-0.00031821,-0.00
 022238,0.00026204,0.00099208,0.00239630,0.00375934,0.00219375,-0.00031
 999,-0.00030968,0.00012287,0.00007181,0.00017446,-0.00005028,-0.000409
 46,0.00108178,0.00001564,-0.00016551,-0.00013305,-0.00005414,-0.000180
 06,0.00003442,0.00006891,-0.00009708,-0.00012954,0.00002528,0.00001571
 ,-0.00010549,0.00005465,0.00067656,0.00019685,-0.00066823,-0.00086633,
 -0.00068105,-0.00062427,0.01352506,-0.06378428,0.01911690,-0.02011323,
 0.07941760,-0.00079025,0.00016894,0.00031894,0.00022975,0.00003122,0.0
 0020239,0.00019048,0.00011469,0.00045974,0.00033158,0.00029864,-0.0004
 2179,-0.00156442,-0.00306122,-0.00179245,0.00021983,0.00116352,-0.0001
 2612,-0.00009575,-0.00008117,-0.00019279,0.00021486,-0.00041684,0.0000
 3405,0.00017480,0.00008939,0.00010063,0.00006992,-0.00007812,-0.000021
 93,0.00006997,0.00014243,-0.00000470,-0.00000566,0.00004044,0.00001162
 ,-0.00031456,-0.00015003,0.00026005,0.00073795,0.00058939,0.00061550,-
 0.08706657,0.01292214,-0.19707636,0.10759568,-0.02785846,0.22021836,-0
 .00029062,0.00026175,0.00023693,0.00010063,0.00012901,0.00014152,0.000
 07329,0.00005810,0.00013179,0.00034599,-0.00000932,-0.00050169,-0.0016
 4932,-0.00239265,-0.00108060,0.00006087,0.00030890,-0.00001232,-0.0000
 3305,-0.00004382,-0.00002204,0.00013290,-0.00027129,0.00015402,0.00011
 721,0.00007647,-0.00005606,0.00017239,0.00013674,-0.00026958,0.0000531
 1,0.00004800,0.00000089,0.00001431,0.00005379,-0.00006814,-0.00036476,
 -0.00002900,0.00060659,0.00067032,0.00061603,0.00029837,-0.11677691,0.
 02371243,0.07927580,0.01221259,-0.00564598,-0.01766012,0.13260349,0.00
 050066,-0.00015115,-0.00113865,-0.00012154,-0.00027331,-0.00024670,-0.
 00018964,-0.00021843,-0.00021285,-0.00100444,-0.00000356,0.00151997,0.
 00395846,0.00592203,0.00283101,-0.00012728,-0.00062886,-0.00037301,0.0
 0007609,-0.00002856,-0.00002468,-0.00029992,0.00064386,-0.00030692,-0.
 00022641,-0.00020696,0.00011353,-0.00019099,-0.00018432,0.00001688,-0.
 00007327,-0.00003256,0.00000976,-0.00001413,-0.00000831,0.00014753,0.0
 0052364,0.00019857,-0.00056702,-0.00137154,-0.00141851,-0.00073201,0.0
 2775808,-0.07307607,-0.04719821,-0.00223702,0.00528084,-0.00074370,-0.
 03759482,0.09535501,-0.00015849,-0.00004892,-0.00004605,-0.00001001,-0
 .00017276,-0.00001043,0.00004809,0.00003303,0.00013675,-0.00007126,0.0
 0010120,0.00019433,0.00146041,0.00225211,0.00095500,0.00015744,-0.0000
 7020,-0.00029546,-0.00000772,0.00004659,-0.00006383,-0.00012960,0.0002
 0440,-0.00004382,-0.00009502,-0.00007368,0.00009141,-0.00027152,-0.000
 14784,0.00029548,-0.00004692,-0.00007947,-0.00002113,-0.00002236,-0.00
 003321,0.00009439,0.00061368,0.00007643,-0.00062707,-0.00072496,-0.000
 73124,-0.00025531,0.08148910,-0.04099405,-0.19752094,0.01562880,-0.007
 01493,-0.03514141,-0.09962523,0.05521393,0.21779034,0.00009578,-0.0000
 5828,-0.00001828,0.00003032,-0.00005088,0.00002120,0.00002268,0.000067
 75,0.00010245,-0.00015029,0.00028815,0.00007486,-0.00086744,-0.0017320
 4,-0.00127798,0.00005374,0.00039251,0.00003617,-0.00011124,0.00005251,
 0.00002440,0.00005492,0.00013938,-0.00000063,0.00012318,0.00010705,-0.
 00004944,0.00004326,0.00012381,-0.00001374,0.00000616,0.00001697,-0.00
 000065,0.00002330,-0.00002164,-0.00000570,-0.00016110,-0.00005017,0.00
 017222,0.00031204,0.00029260,0.00023748,-0.14146415,-0.01909757,0.0034
 1227,-0.02429921,-0.01649899,0.00279739,-0.02232350,-0.01555422,0.0016
 3742,0.53110254,0.00023097,0.00001725,-0.00022001,-0.00002487,-0.00004
 138,-0.00012009,-0.00008224,-0.00009299,-0.00014722,-0.00025242,-0.000
 06622,0.00043042,0.00261163,0.00545790,0.00371246,-0.00047221,-0.00072
 622,-0.00030375,0.00010148,-0.00035168,0.00002371,-0.00020054,-0.00013
 697,0.00000169,-0.00020329,-0.00025720,0.00010646,-0.00010151,-0.00013
 466,0.00010025,-0.00002708,-0.00008720,-0.00001369,0.00000190,-0.00013
 669,0.00009431,0.00041925,0.00006967,-0.00063392,-0.00101198,-0.001244
 28,-0.00081673,-0.02863693,-0.08119404,-0.00091792,-0.00017221,0.00267
 755,0.00069225,0.00559584,0.00601471,-0.00200592,-0.08491348,0.5631266
 6,-0.00009330,-0.00003132,-0.00016416,0.00007164,0.00001808,0.00001408
 ,-0.00000461,0.00004599,0.00008313,-0.00007923,-0.00053636,-0.00020118
 ,-0.00014575,-0.00009656,0.00021524,0.00006613,0.00041708,-0.00017999,
 0.00002030,-0.00000083,-0.00014481,0.00002369,0.00006754,0.00009266,0.
 00002294,-0.00001804,0.00005211,-0.00003232,-0.00006145,0.00001561,-0.
 00001213,0.00000109,-0.00001004,-0.00000462,0.00006095,-0.00001977,0.0
 0005487,-0.00003890,-0.00003912,0.00016861,0.00010357,0.00003075,0.004
 81513,-0.00102803,-0.09341177,-0.03098706,-0.01947571,0.00090527,0.031
 49674,0.01903402,-0.00410298,0.01114298,0.00849291,0.63186805,-0.00003
 310,-0.00004574,-0.00010758,0.00003626,0.00007249,-0.00002187,-0.00006
 003,-0.00002865,-0.00006405,0.00005969,-0.00032158,0.00011841,-0.00009
 398,0.00010587,0.00021858,-0.00000881,0.00006051,0.00004114,0.00005610
 ,-0.00006247,-0.00002008,-0.00000737,-0.00000355,0.00001996,0.00000677
 ,-0.00002014,-0.00001180,0.00002185,0.00006176,-0.00004288,0.00000513,
 0.00000439,0.00000432,0.00001297,-0.00001684,-0.00001744,-0.00006065,-
 0.00000392,0.00007038,0.00008804,0.00003414,-0.00006690,-0.02025764,0.
 01072723,0.03107261,0.00145881,0.00120362,-0.00077921,-0.00576664,-0.0
 0529967,0.00049157,-0.12903987,0.03814228,0.11488938,0.14279129,-0.000
 06767,-0.00009757,-0.00004081,0.00002335,0.00003337,0.00000923,0.00001
 585,0.00002260,0.00000727,-0.00007744,-0.00047391,-0.00024562,-0.00037
 052,-0.00052405,-0.00022708,0.00003197,0.00009497,0.00004425,0.0000094
 5,-0.00001217,-0.00000239,0.00001773,-0.00004885,0.00002734,0.00002349
 ,0.00001772,-0.00001027,0.00003348,0.00003917,-0.00002255,0.00000918,0
 .00000769,-0.00000109,0.00000229,0.00000378,-0.00001842,-0.00007258,-0
 .00001258,0.00008764,0.00017965,0.00017316,0.00008283,-0.01426525,0.00
 439940,0.02008893,0.00164504,0.00061254,-0.00026417,-0.00437531,-0.002
 21696,0.00111973,0.04063480,-0.07600258,-0.05835687,-0.04207451,0.0783
 5932,0.00002291,0.00002464,0.00012786,-0.00001640,-0.00000173,0.000013
 43,-0.00000917,-0.00000923,-0.00000216,0.00005468,0.00019570,-0.000007
 93,-0.00010017,-0.00042219,-0.00039801,0.00002385,0.00000701,0.0000311
 4,-0.00001859,0.00005204,0.00002168,0.00003065,-0.00001331,-0.00003902
 ,0.00000526,0.00003619,0.00000305,-0.00000870,-0.00003989,0.00001521,-
 0.00000277,0.00000946,0.00000580,-0.00000574,0.00000681,0.00000459,-0.
 00002779,-0.00001103,0.00000382,-0.00000429,0.00007718,0.00010107,0.00
 042113,-0.00390693,-0.00358647,0.00041261,0.00054496,0.00168218,0.0008
 4548,0.00071581,0.00178403,0.11574842,-0.05711634,-0.24094638,-0.12945
 160,0.06721143,0.26257675,0.00003479,-0.00004295,-0.00007441,-0.000007
 48,-0.00001725,-0.00003498,-0.00000611,-0.00001539,-0.00002970,-0.0000
 8712,-0.00007606,0.00004685,0.00065985,0.00135351,0.00094380,-0.000105
 42,-0.00020816,-0.00009240,0.00004324,-0.00012828,-0.00000811,-0.00007
 616,-0.00006982,-0.00000506,-0.00006364,-0.00007553,0.00003108,-0.0000
 0826,-0.00002860,0.00002388,-0.00000082,-0.00001590,-0.00000431,-0.000
 00157,-0.00003713,0.00002492,0.00009138,0.00002377,-0.00015075,-0.0002
 4003,-0.00030697,-0.00020487,0.01637687,-0.03032617,0.00179723,0.00097
 720,0.00176248,-0.00087772,0.00103394,0.00192710,0.00049241,-0.0822043
 7,0.06868796,-0.00495548,-0.00626226,0.01956703,-0.00296583,0.08163414
 ,0.00009768,-0.00010481,-0.00008914,-0.00003423,-0.00009151,-0.0000688
 4,-0.00004959,-0.00002827,-0.00006042,-0.00014010,0.00009578,0.0002872
 0,0.00140945,0.00256861,0.00149660,-0.00015106,-0.00036080,-0.00014160
 ,0.00000617,-0.00010127,-0.00001866,-0.00010071,0.00015608,-0.00004572
 ,-0.00008335,-0.00010933,0.00002336,-0.00005983,-0.00000271,0.00004632
 ,-0.00003933,-0.00005582,-0.00000841,0.00001666,-0.00007580,0.00006360
 ,0.00022228,0.00005153,-0.00029454,-0.00071499,-0.00076539,-0.00046633
 ,0.01696500,-0.01653349,0.00039273,-0.00103514,0.00121967,-0.00178599,
 -0.00103887,0.00155966,0.00162154,0.06651326,-0.29956946,0.01711317,0.
 00227742,-0.00934979,0.00021773,-0.07843063,0.33244766,0.00000387,0.00
 002312,0.00008110,-0.00001049,-0.00001154,0.00000814,0.00000834,0.0000
 0364,0.00001297,0.00003307,0.00005852,-0.00005749,-0.00017909,-0.00046
 801,-0.00032300,0.00005062,0.00009960,0.00005714,-0.00002391,0.0000328
 1,0.00002487,0.00000645,-0.00001300,-0.00002410,0.00001231,0.00001680,
 -0.00000401,0.00000081,-0.00000760,0.00001854,0.00000443,0.00000439,0.
 00000488,-0.00000415,-0.00000618,0.00000179,-0.00001186,-0.00001306,-0
 .00000923,0.00007286,0.00011023,0.00008441,-0.00198601,0.00215014,-0.0
 0282480,0.00020693,-0.00015282,-0.00012457,-0.00008382,-0.00017613,-0.
 00042199,-0.00486080,0.01702155,-0.06241029,0.00738198,-0.03233184,0.0
 0397401,0.00552674,-0.01961740,0.05977823,-0.00000576,-0.00003150,0.00
 000302,0.00002111,-0.00003502,-0.00000113,0.00000756,0.00002778,0.0000
 6209,-0.00004034,-0.00003420,-0.00002966,-0.00000511,-0.00007384,-0.00
 005302,0.00004368,0.00020582,-0.00001037,0.00000171,-0.00004163,-0.000
 03689,-0.00001136,-0.00001668,-0.00003455,0.00001079,-0.00001280,0.000
 02954,0.00001342,-0.00001544,0.00001466,0.00001387,0.00003010,0.000005
 09,0.00000401,-0.00003630,0.00002892,-0.00003846,0.00001581,-0.0000613
 7,0.00003026,-0.00002408,0.00004627,-0.02224502,0.00503332,-0.03101890
 ,-0.00575331,-0.00522168,0.00087652,0.00135008,0.00128645,0.00056983,-
 0.14755350,0.02210010,-0.12783850,0.01263986,-0.00316439,0.01719853,-0
 .00660569,0.00112184,-0.00698671,0.16341273,-0.00002707,0.00000666,0.0
 0005896,0.00001264,-0.00000734,0.00001504,0.00002509,0.00002565,0.0000
 5184,-0.00002426,0.00007283,-0.00007664,-0.00028169,-0.00060184,-0.000
 36346,0.00008242,0.00013779,0.00001881,-0.00001074,-0.00003371,-0.0000
 0346,0.00001107,-0.00006527,-0.00001147,0.00002591,0.00001761,0.000010
 28,0.00002560,0.00000370,0.00000042,0.00001656,0.00002214,0.00000219,-
 0.00000398,-0.00000248,0.00000125,-0.00006423,-0.00000262,0.00003672,0
 .00014039,0.00013198,0.00011457,-0.01559744,0.00163767,-0.01980888,-0.
 00450329,-0.00246609,-0.00005292,0.00149598,0.00053207,0.00039116,0.02
 454519,-0.06209688,0.02862444,-0.00669967,0.00110339,-0.00905463,0.022
 21504,-0.00394777,0.03211196,-0.02416141,0.06153751,0.00002118,-0.0000
 3752,0.00001142,-0.00000916,-0.00006192,-0.00001168,0.00004251,0.00002
 532,0.00004317,-0.00009593,0.00014283,-0.00003168,0.00030236,0.0004537
 4,0.00018582,-0.00003460,0.00000547,-0.00001502,-0.00004150,-0.0000414
 3,-0.00001019,-0.00003047,-0.00000682,-0.00002801,-0.00000854,-0.00002
 491,0.00001109,0.00001217,-0.00000392,0.00001854,0.00000997,0.00000142
 ,-0.00000451,0.00000027,-0.00003345,0.00003261,-0.00000222,0.00000226,
 -0.00004702,-0.00010222,-0.00014592,-0.00002950,0.00345949,0.00220018,
 0.00151468,0.00039973,0.00044035,0.00188837,-0.00072257,-0.00042910,0.
 00158660,-0.12919391,0.02725524,-0.23815481,-0.01915878,0.00468897,-0.
 02699064,0.00029342,0.00095945,-0.00082521,0.14347259,-0.03357581,0.26
 019332,0.00025771,-0.00006955,0.00359943,0.00068584,0.00058297,-0.0001
 3538,0.00063682,0.00068392,0.00067291,0.00103216,-0.00122609,-0.003605
 37,-0.01291227,0.00822979,0.00045327,-0.00185502,-0.00976153,-0.003592
 09,-0.00338238,0.00298552,-0.00119194,0.00125125,0.00201901,0.00036524
 ,0.00133200,0.00060097,-0.00025381,0.00000262,0.00110330,0.00262583,0.
 00027276,-0.00046689,-0.00042039,0.00006097,-0.00135792,0.00021609,-0.
 00102421,-0.00128116,-0.00225888,-0.00304700,-0.00658549,-0.00394992,-
 0.09765356,0.04554772,-0.00683507,-0.00322022,0.03021287,-0.00435446,-
 0.00173632,0.02827442,-0.00142565,0.01630678,-0.02179265,0.00138061,0.
 00441357,0.00227436,-0.00215250,-0.00518248,-0.00675192,0.00083845,0.0
 0470949,0.00277790,0.00138620,0.09905149,0.00185667,-0.00253971,-0.008
 45200,-0.00086579,-0.00100024,-0.00165774,-0.00091470,-0.00121287,-0.0
 0178412,-0.00079109,-0.00629314,-0.00228942,0.02209327,0.03886704,0.02
 461081,-0.00894431,-0.01211100,-0.00598349,-0.00141559,-0.01550902,0.0
 0009421,-0.00173864,-0.00450615,-0.00045499,-0.00267545,-0.00303788,0.
 00087848,-0.00103699,-0.00085186,0.00013827,-0.00034433,-0.00086161,-0
 .00009030,0.00009083,-0.00101856,0.00079332,0.00101238,-0.00249940,-0.
 00135548,-0.01107258,-0.01250981,-0.00829118,0.03953186,-0.22780448,0.
 00935332,0.01832597,-0.02684139,0.01823956,0.01890802,-0.03705918,-0.0
 0968789,0.00480330,-0.05522527,0.00566525,0.00188702,0.00387136,0.0014
 7633,-0.00575805,-0.00700275,0.00116482,0.00304776,0.00399501,-0.00181
 442,-0.07599954,0.37115093,0.00474599,-0.00746103,-0.00693713,-0.00201
 016,-0.00246575,-0.00220959,-0.00098814,-0.00044480,-0.00040140,-0.003
 78883,-0.00229059,-0.00278819,0.00508513,0.01887583,-0.00181924,-0.004
 52996,-0.00773122,-0.00436927,-0.00003239,0.00147212,-0.00195524,0.000
 94859,0.00036759,-0.00085740,0.00006175,0.00102678,0.00079770,0.002552
 94,-0.00135012,-0.00232981,0.00057157,0.00168165,-0.00022785,-0.000107
 82,0.00124942,0.00035398,-0.00309467,0.00152724,0.00279224,-0.00599491
 ,-0.00762036,-0.00212723,-0.00957139,0.01375724,-0.09494492,-0.0088342
 7,0.03300993,0.00820501,0.00691403,-0.02745342,0.01562208,0.00001388,0
 .00436434,0.00650839,-0.00456612,-0.00184649,0.00162600,0.00022328,0.0
 0037536,0.00297859,0.00376404,0.00150964,0.00066265,0.01863746,-0.0205
 5334,0.08142062||0.00000070,0.00000106,-0.00000258,-0.00000028,0.00000
 060,0.00000122,-0.00000007,0.00000001,-0.00000130,-0.00000245,0.000000
 05,0.00000142,0.00000100,-0.00000566,-0.00000944,0.00000091,0.00000414
 ,0.00000389,-0.00000284,-0.00000089,0.00000364,0.00004389,0.00001257,0
 .00003286,0.00000145,-0.00000203,0.00000431,0.00000244,-0.00000075,-0.
 00000198,-0.00000098,-0.00000031,-0.00000023,0.00000056,-0.00000019,0.
 00000021,0.00000067,-0.00000064,-0.00000004,-0.00000289,0.00000002,-0.
 00000043,0.00007937,0.00002341,0.00005365,0.00000279,-0.00000238,-0.00
 000382,-0.00000584,-0.00000058,-0.00000154,-0.00000145,0.00000418,0.00
 000491,-0.00000282,-0.00000051,0.00000051,0.00000168,0.00000410,-0.000
 00094,-0.00000146,-0.00000130,-0.00000088,-0.00011436,-0.00003490,-0.0
 0008344|||@


 ONE BIG VICE IN A MAN IS APT TO KEEP OUT MANY SMALLER ONES.

                           -- BRET HARTE
 Job cpu time:  0 days  0 hours  0 minutes 28.0 seconds.
 File lengths (MBytes):  RWF=     50 Int=      0 D2E=      0 Chk=      2 Scr=      1
 Normal termination of Gaussian 09 at Tue Dec 03 22:39:51 2024.
